<?xml version="1.0" encoding="UTF-8"?>

<!-- generated on 2025-10-25 12:18:08 by Eclipse SUMO GUI Version 1.24.0
<sumoConfiguration xmlns:xsi="http://www.w3.org/2001/XMLSchema-instance" xsi:noNamespaceSchemaLocation="http://sumo.dlr.de/xsd/sumoConfiguration.xsd">

    <input>
        <net-file value="hexagon.net.xml"/>
        <route-files value="hexagon.rou.xml"/>
        <additional-files value="hospitals.add.xml, detectors.add.xml"/>
    </input>

    <output>
        <tripinfo-output value="tripinfo_results.xml"/>
    </output>

    <time>
        <begin value="0"/>
        <end value="4000"/>
    </time>

    <traci_server>
        <remote-port value="52796"/>
    </traci_server>

    <gui_only>
        <quit-on-end value="true"/>
        <start value="true"/>
    </gui_only>

</sumoConfiguration>
-->

<tripinfos xmlns:xsi="http://www.w3.org/2001/XMLSchema-instance" xsi:noNamespaceSchemaLocation="http://sumo.dlr.de/xsd/tripinfo_file.xsd">
    <tripinfo id="amb_1" depart="0.00" departLane="e5_0" departPos="161.19" departSpeed="0.00" departDelay="0.00" arrival="18.00" arrivalLane="e6_0" arrivalPos="180.91" arrivalSpeed="17.18" duration="18.00" routeLength="216.31" waitingTime="2.00" waitingCount="1" stopTime="0.00" timeLoss="1.30" rerouteNo="1" devices="tripinfo_amb_1" vType="ambulance" speedFactor="1.00" vaporized=""/>
    <tripinfo id="bg_traffic_main.0" depart="0.00" departLane="e6_0" departPos="5.10" departSpeed="0.00" departDelay="0.00" arrival="47.00" arrivalLane="e2_0" arrivalPos="180.91" arrivalSpeed="13.91" duration="47.00" routeLength="568.99" waitingTime="0.00" waitingCount="0" stopTime="0.00" timeLoss="7.07" rerouteNo="1" devices="tripinfo_bg_traffic_main.0 routing_bg_traffic_main.0" vType="car" speedFactor="1.06" vaporized=""/>
    <tripinfo id="amb_3" depart="0.00" departLane="e3_0" departPos="128.90" departSpeed="0.00" departDelay="0.00" arrival="49.00" arrivalLane="e2_0" arrivalPos="180.91" arrivalSpeed="39.58" duration="49.00" routeLength="626.00" waitingTime="4.00" waitingCount="2" stopTime="0.00" timeLoss="0.20" rerouteNo="2" devices="tripinfo_amb_3" vType="ambulance" speedFactor="1.00" vaporized=""/>
    <tripinfo id="amb_4" depart="0.00" departLane="e7_rev_0" departPos="7.50" departSpeed="0.00" departDelay="0.00" arrival="54.00" arrivalLane="e2_0" arrivalPos="180.91" arrivalSpeed="48.00" duration="54.00" routeLength="548.63" waitingTime="12.00" waitingCount="5" stopTime="0.00" timeLoss="9.79" rerouteNo="1" devices="tripinfo_amb_4" vType="ambulance" speedFactor="1.00" vaporized=""/>
    <tripinfo id="amb_5" depart="0.00" departLane="e12_0" departPos="81.04" departSpeed="0.00" departDelay="0.00" arrival="70.00" arrivalLane="e4_0" arrivalPos="180.91" arrivalSpeed="48.00" duration="70.00" routeLength="653.28" waitingTime="22.00" waitingCount="3" stopTime="0.00" timeLoss="19.03" rerouteNo="1" devices="tripinfo_amb_5" vType="ambulance" speedFactor="1.00" vaporized=""/>
    <tripinfo id="bg_traffic_main.1" depart="25.00" departLane="e6_0" departPos="5.10" departSpeed="0.00" departDelay="0.00" arrival="78.00" arrivalLane="e2_0" arrivalPos="180.91" arrivalSpeed="12.97" duration="53.00" routeLength="568.99" waitingTime="0.00" waitingCount="0" stopTime="0.00" timeLoss="7.69" rerouteNo="1" devices="tripinfo_bg_traffic_main.1 routing_bg_traffic_main.1" vType="car" speedFactor="0.94" vaporized=""/>
</tripinfos>
