<?xml version="1.0" encoding="UTF-8"?>

<!-- generated on 2025-10-23 21:32:31 by Eclipse SUMO sumo Version 1.24.0
<sumoConfiguration xmlns:xsi="http://www.w3.org/2001/XMLSchema-instance" xsi:noNamespaceSchemaLocation="http://sumo.dlr.de/xsd/sumoConfiguration.xsd">

    <input>
        <net-file value="hexagon.net.xml"/>
        <route-files value="hexagon.rou.xml"/>
        <additional-files value="hospitals.add.xml"/>
    </input>

    <output>
        <tripinfo-output value="tripinfo_baseline_output.xml"/>
    </output>

    <time>
        <begin value="0"/>
        <end value="1000"/>
    </time>

</sumoConfiguration>
-->

<tripinfos xmlns:xsi="http://www.w3.org/2001/XMLSchema-instance" xsi:noNamespaceSchemaLocation="http://sumo.dlr.de/xsd/tripinfo_file.xsd">
    <tripinfo id="amb_1" depart="0.00" departLane="e5_0" departPos="161.19" departSpeed="0.00" departDelay="0.00" arrival="3.00" arrivalLane="e5_0" arrivalPos="180.91" arrivalSpeed="13.89" duration="3.00" routeLength="19.72" waitingTime="0.00" waitingCount="0" stopTime="0.00" timeLoss="0.70" rerouteNo="0" devices="tripinfo_amb_1" vType="ambulance" speedFactor="1.00" vaporized=""/>
    <tripinfo id="amb_2" depart="0.00" departLane="e10_0" departPos="117.50" departSpeed="0.00" departDelay="0.00" arrival="5.00" arrivalLane="e10_0" arrivalPos="164.91" arrivalSpeed="13.89" duration="5.00" routeLength="47.41" waitingTime="0.00" waitingCount="0" stopTime="0.00" timeLoss="0.70" rerouteNo="0" devices="tripinfo_amb_2" vType="ambulance" speedFactor="1.00" vaporized=""/>
    <tripinfo id="amb_5" depart="0.00" departLane="e11_rev_0" departPos="97.29" departSpeed="0.00" departDelay="0.00" arrival="6.00" arrivalLane="e11_rev_0" arrivalPos="164.91" arrivalSpeed="13.89" duration="6.00" routeLength="67.62" waitingTime="0.00" waitingCount="0" stopTime="0.00" timeLoss="0.70" rerouteNo="0" devices="tripinfo_amb_5" vType="ambulance" speedFactor="1.00" vaporized=""/>
    <tripinfo id="amb_4" depart="0.00" departLane="e7_rev_0" departPos="81.04" departSpeed="0.00" departDelay="0.00" arrival="7.00" arrivalLane="e7_rev_0" arrivalPos="164.91" arrivalSpeed="13.89" duration="7.00" routeLength="83.87" waitingTime="0.00" waitingCount="0" stopTime="0.00" timeLoss="0.70" rerouteNo="0" devices="tripinfo_amb_4" vType="ambulance" speedFactor="1.00" vaporized=""/>
    <tripinfo id="amb_3" depart="0.00" departLane="e3_0" departPos="8.23" departSpeed="0.00" departDelay="0.00" arrival="14.00" arrivalLane="e3_0" arrivalPos="180.91" arrivalSpeed="13.89" duration="14.00" routeLength="172.68" waitingTime="0.00" waitingCount="0" stopTime="0.00" timeLoss="0.70" rerouteNo="0" devices="tripinfo_amb_3" vType="ambulance" speedFactor="1.00" vaporized=""/>
    <tripinfo id="bg_traffic_main.0" depart="0.00" departLane="e6_0" departPos="5.10" departSpeed="0.00" departDelay="0.00" arrival="47.00" arrivalLane="e2_0" arrivalPos="180.91" arrivalSpeed="13.53" duration="47.00" routeLength="568.99" waitingTime="0.00" waitingCount="0" stopTime="0.00" timeLoss="6.97" rerouteNo="1" devices="tripinfo_bg_traffic_main.0 routing_bg_traffic_main.0" vType="car" speedFactor="1.06" vaporized=""/>
    <tripinfo id="bg_traffic_main.1" depart="25.00" departLane="e6_0" departPos="5.10" departSpeed="0.00" departDelay="0.00" arrival="83.00" arrivalLane="e2_0" arrivalPos="180.91" arrivalSpeed="12.48" duration="58.00" routeLength="568.99" waitingTime="2.00" waitingCount="1" stopTime="0.00" timeLoss="13.44" rerouteNo="1" devices="tripinfo_bg_traffic_main.1 routing_bg_traffic_main.1" vType="car" speedFactor="0.94" vaporized=""/>
    <tripinfo id="bg_traffic_main.2" depart="50.00" departLane="e6_0" departPos="5.10" departSpeed="0.00" departDelay="0.00" arrival="97.00" arrivalLane="e2_0" arrivalPos="180.91" arrivalSpeed="13.93" duration="47.00" routeLength="568.99" waitingTime="0.00" waitingCount="0" stopTime="0.00" timeLoss="5.64" rerouteNo="1" devices="tripinfo_bg_traffic_main.2 routing_bg_traffic_main.2" vType="car" speedFactor="1.01" vaporized=""/>
    <tripinfo id="bg_cross_1.0" depart="50.00" departLane="e10_0" departPos="5.10" departSpeed="0.00" departDelay="0.00" arrival="120.00" arrivalLane="e8_0" arrivalPos="164.91" arrivalSpeed="14.68" duration="70.00" routeLength="539.08" waitingTime="16.00" waitingCount="2" stopTime="0.00" timeLoss="33.04" rerouteNo="1" devices="tripinfo_bg_cross_1.0 routing_bg_cross_1.0" vType="car" speedFactor="1.08" vaporized=""/>
    <tripinfo id="bg_traffic_main.3" depart="75.00" departLane="e6_0" departPos="5.10" departSpeed="0.00" departDelay="0.00" arrival="128.00" arrivalLane="e2_0" arrivalPos="180.91" arrivalSpeed="13.25" duration="53.00" routeLength="568.99" waitingTime="1.00" waitingCount="1" stopTime="0.00" timeLoss="11.97" rerouteNo="1" devices="tripinfo_bg_traffic_main.3 routing_bg_traffic_main.3" vType="car" speedFactor="1.03" vaporized=""/>
    <tripinfo id="bg_cross_1.1" depart="89.00" departLane="e10_0" departPos="5.10" departSpeed="0.00" departDelay="3.00" arrival="151.00" arrivalLane="e8_0" arrivalPos="164.91" arrivalSpeed="10.60" duration="62.00" routeLength="539.08" waitingTime="0.00" waitingCount="0" stopTime="0.00" timeLoss="13.70" rerouteNo="1" devices="tripinfo_bg_cross_1.1 routing_bg_cross_1.1" vType="car" speedFactor="0.83" vaporized=""/>
    <tripinfo id="bg_traffic_main.4" depart="100.00" departLane="e6_0" departPos="5.10" departSpeed="0.00" departDelay="0.00" arrival="168.00" arrivalLane="e2_0" arrivalPos="180.91" arrivalSpeed="7.21" duration="68.00" routeLength="568.99" waitingTime="9.00" waitingCount="1" stopTime="0.00" timeLoss="27.90" rerouteNo="1" devices="tripinfo_bg_traffic_main.4 routing_bg_traffic_main.4" vType="car" speedFactor="1.05" vaporized=""/>
    <tripinfo id="bg_cross_1.2" depart="122.00" departLane="e10_0" departPos="5.10" departSpeed="0.00" departDelay="0.00" arrival="175.00" arrivalLane="e8_0" arrivalPos="164.91" arrivalSpeed="12.71" duration="53.00" routeLength="539.08" waitingTime="0.00" waitingCount="0" stopTime="0.00" timeLoss="10.52" rerouteNo="1" devices="tripinfo_bg_cross_1.2 routing_bg_cross_1.2" vType="car" speedFactor="0.94" vaporized=""/>
    <tripinfo id="bg_traffic_main.5" depart="125.00" departLane="e6_0" departPos="5.10" departSpeed="0.00" departDelay="0.00" arrival="184.00" arrivalLane="e2_0" arrivalPos="180.91" arrivalSpeed="11.25" duration="59.00" routeLength="568.99" waitingTime="0.00" waitingCount="0" stopTime="0.00" timeLoss="9.60" rerouteNo="1" devices="tripinfo_bg_traffic_main.5 routing_bg_traffic_main.5" vType="car" speedFactor="0.86" vaporized=""/>
    <tripinfo id="bg_traffic_main.6" depart="150.00" departLane="e6_0" departPos="5.10" departSpeed="0.00" departDelay="0.00" arrival="195.00" arrivalLane="e2_0" arrivalPos="180.91" arrivalSpeed="14.56" duration="45.00" routeLength="568.99" waitingTime="0.00" waitingCount="0" stopTime="0.00" timeLoss="6.71" rerouteNo="1" devices="tripinfo_bg_traffic_main.6 routing_bg_traffic_main.6" vType="car" speedFactor="1.09" vaporized=""/>
    <tripinfo id="bg_outer_ring_trucks.0" depart="101.00" departLane="e1_0" departPos="12.10" departSpeed="0.00" departDelay="1.00" arrival="202.00" arrivalLane="e4_0" arrivalPos="180.91" arrivalSpeed="12.04" duration="101.00" routeLength="758.58" waitingTime="8.00" waitingCount="2" stopTime="0.00" timeLoss="37.96" rerouteNo="1" devices="tripinfo_bg_outer_ring_trucks.0 routing_bg_outer_ring_trucks.0" vType="truck" speedFactor="0.89" vaporized=""/>
    <tripinfo id="bg_cross_1.3" depart="158.00" departLane="e10_0" departPos="5.10" departSpeed="0.00" departDelay="0.00" arrival="205.00" arrivalLane="e8_0" arrivalPos="164.91" arrivalSpeed="14.21" duration="47.00" routeLength="539.08" waitingTime="0.00" waitingCount="0" stopTime="0.00" timeLoss="8.80" rerouteNo="1" devices="tripinfo_bg_cross_1.3 routing_bg_cross_1.3" vType="car" speedFactor="1.05" vaporized=""/>
    <tripinfo id="bg_outer_ring_cars.0" depart="150.00" departLane="e4_rev_0" departPos="5.10" departSpeed="0.00" departDelay="0.00" arrival="228.00" arrivalLane="e1_rev_0" arrivalPos="180.91" arrivalSpeed="13.36" duration="78.00" routeLength="775.66" waitingTime="11.00" waitingCount="1" stopTime="0.00" timeLoss="22.72" rerouteNo="1" devices="tripinfo_bg_outer_ring_cars.0 routing_bg_outer_ring_cars.0" vType="car" speedFactor="1.03" vaporized=""/>
    <tripinfo id="bg_traffic_main.7" depart="175.00" departLane="e6_0" departPos="5.10" departSpeed="0.00" departDelay="0.00" arrival="248.00" arrivalLane="e2_0" arrivalPos="180.91" arrivalSpeed="6.22" duration="73.00" routeLength="568.99" waitingTime="12.00" waitingCount="2" stopTime="0.00" timeLoss="36.01" rerouteNo="1" devices="tripinfo_bg_traffic_main.7 routing_bg_traffic_main.7" vType="car" speedFactor="1.12" vaporized=""/>
    <tripinfo id="bg_traffic_main.8" depart="200.00" departLane="e6_0" departPos="5.10" departSpeed="0.00" departDelay="0.00" arrival="251.00" arrivalLane="e2_0" arrivalPos="180.91" arrivalSpeed="12.57" duration="51.00" routeLength="568.99" waitingTime="0.00" waitingCount="0" stopTime="0.00" timeLoss="5.92" rerouteNo="1" devices="tripinfo_bg_traffic_main.8 routing_bg_traffic_main.8" vType="car" speedFactor="0.94" vaporized=""/>
    <tripinfo id="bg_cross_1.4" depart="194.00" departLane="e10_0" departPos="5.10" departSpeed="0.00" departDelay="0.00" arrival="262.00" arrivalLane="e8_0" arrivalPos="164.91" arrivalSpeed="11.13" duration="68.00" routeLength="539.08" waitingTime="8.00" waitingCount="1" stopTime="0.00" timeLoss="22.34" rerouteNo="1" devices="tripinfo_bg_cross_1.4 routing_bg_cross_1.4" vType="car" speedFactor="0.88" vaporized=""/>
    <tripinfo id="bg_outer_ring_cars.1" depart="188.00" departLane="e4_rev_0" departPos="5.10" departSpeed="0.00" departDelay="0.50" arrival="265.00" arrivalLane="e1_rev_0" arrivalPos="180.91" arrivalSpeed="12.22" duration="77.00" routeLength="775.66" waitingTime="1.00" waitingCount="1" stopTime="0.00" timeLoss="15.46" rerouteNo="1" devices="tripinfo_bg_outer_ring_cars.1 routing_bg_outer_ring_cars.1" vType="car" speedFactor="0.93" vaporized=""/>
    <tripinfo id="bg_traffic_main.9" depart="225.00" departLane="e6_0" departPos="5.10" departSpeed="0.00" departDelay="0.00" arrival="282.00" arrivalLane="e2_0" arrivalPos="180.91" arrivalSpeed="12.02" duration="57.00" routeLength="568.99" waitingTime="0.00" waitingCount="0" stopTime="0.00" timeLoss="11.75" rerouteNo="1" devices="tripinfo_bg_traffic_main.9 routing_bg_traffic_main.9" vType="car" speedFactor="0.94" vaporized=""/>
    <tripinfo id="bg_cross_1.5" depart="231.00" departLane="e10_0" departPos="5.10" departSpeed="0.00" departDelay="1.00" arrival="287.00" arrivalLane="e8_0" arrivalPos="164.91" arrivalSpeed="13.72" duration="56.00" routeLength="539.08" waitingTime="2.00" waitingCount="1" stopTime="0.00" timeLoss="16.68" rerouteNo="1" devices="tripinfo_bg_cross_1.5 routing_bg_cross_1.5" vType="car" speedFactor="1.02" vaporized=""/>
    <tripinfo id="bg_outer_ring_trucks.1" depart="188.00" departLane="e1_0" departPos="12.10" departSpeed="0.00" departDelay="0.50" arrival="292.00" arrivalLane="e4_0" arrivalPos="180.91" arrivalSpeed="13.69" duration="104.00" routeLength="758.58" waitingTime="5.00" waitingCount="2" stopTime="0.00" timeLoss="47.67" rerouteNo="1" devices="tripinfo_bg_outer_ring_trucks.1 routing_bg_outer_ring_trucks.1" vType="truck" speedFactor="0.99" vaporized=""/>
    <tripinfo id="bg_outer_ring_cars.2" depart="225.00" departLane="e4_rev_0" departPos="5.10" departSpeed="0.00" departDelay="0.00" arrival="295.00" arrivalLane="e1_rev_0" arrivalPos="180.91" arrivalSpeed="14.81" duration="70.00" routeLength="775.66" waitingTime="3.00" waitingCount="1" stopTime="0.00" timeLoss="20.80" rerouteNo="1" devices="tripinfo_bg_outer_ring_cars.2 routing_bg_outer_ring_cars.2" vType="car" speedFactor="1.16" vaporized=""/>
    <tripinfo id="bg_traffic_main.10" depart="250.00" departLane="e6_0" departPos="5.10" departSpeed="0.00" departDelay="0.00" arrival="298.00" arrivalLane="e2_0" arrivalPos="180.91" arrivalSpeed="13.71" duration="48.00" routeLength="568.99" waitingTime="0.00" waitingCount="0" stopTime="0.00" timeLoss="5.81" rerouteNo="1" devices="tripinfo_bg_traffic_main.10 routing_bg_traffic_main.10" vType="car" speedFactor="1.01" vaporized=""/>
    <tripinfo id="bg_cross_1.6" depart="266.00" departLane="e10_0" departPos="5.10" departSpeed="0.00" departDelay="0.00" arrival="319.00" arrivalLane="e8_0" arrivalPos="164.91" arrivalSpeed="11.79" duration="53.00" routeLength="539.08" waitingTime="0.00" waitingCount="0" stopTime="0.00" timeLoss="7.75" rerouteNo="1" devices="tripinfo_bg_cross_1.6 routing_bg_cross_1.6" vType="car" speedFactor="0.89" vaporized=""/>
    <tripinfo id="bg_traffic_main.11" depart="275.00" departLane="e6_0" departPos="5.10" departSpeed="0.00" departDelay="0.00" arrival="335.00" arrivalLane="e2_0" arrivalPos="180.91" arrivalSpeed="10.29" duration="60.00" routeLength="568.99" waitingTime="0.00" waitingCount="0" stopTime="0.00" timeLoss="8.72" rerouteNo="1" devices="tripinfo_bg_traffic_main.11 routing_bg_traffic_main.11" vType="car" speedFactor="0.83" vaporized=""/>
    <tripinfo id="bg_cross_2_short.0" depart="302.00" departLane="e7_rev_0" departPos="5.10" departSpeed="0.00" departDelay="0.00" arrival="344.00" arrivalLane="e11_0" arrivalPos="164.91" arrivalSpeed="12.27" duration="42.00" routeLength="369.50" waitingTime="4.00" waitingCount="1" stopTime="0.00" timeLoss="12.86" rerouteNo="0" devices="tripinfo_bg_cross_2_short.0 routing_bg_cross_2_short.0" vType="car" speedFactor="0.93" vaporized=""/>
    <tripinfo id="bg_outer_ring_cars.3" depart="263.00" departLane="e4_rev_0" departPos="5.10" departSpeed="0.00" departDelay="0.50" arrival="345.00" arrivalLane="e1_rev_0" arrivalPos="180.91" arrivalSpeed="13.07" duration="82.00" routeLength="775.66" waitingTime="7.00" waitingCount="2" stopTime="0.00" timeLoss="23.79" rerouteNo="1" devices="tripinfo_bg_outer_ring_cars.3 routing_bg_outer_ring_cars.3" vType="car" speedFactor="0.97" vaporized=""/>
    <tripinfo id="bg_cross_2_short.1" depart="305.00" departLane="e7_rev_0" departPos="5.10" departSpeed="0.00" departDelay="0.00" arrival="345.00" arrivalLane="e11_0" arrivalPos="164.91" arrivalSpeed="14.28" duration="40.00" routeLength="369.50" waitingTime="3.00" waitingCount="1" stopTime="0.00" timeLoss="17.38" rerouteNo="0" devices="tripinfo_bg_cross_2_short.1 routing_bg_cross_2_short.1" vType="car" speedFactor="1.18" vaporized=""/>
    <tripinfo id="bg_traffic_main.12" depart="300.00" departLane="e6_0" departPos="5.10" departSpeed="0.00" departDelay="0.00" arrival="351.00" arrivalLane="e2_0" arrivalPos="180.91" arrivalSpeed="12.65" duration="51.00" routeLength="568.99" waitingTime="0.00" waitingCount="0" stopTime="0.00" timeLoss="5.31" rerouteNo="1" devices="tripinfo_bg_traffic_main.12 routing_bg_traffic_main.12" vType="car" speedFactor="0.92" vaporized=""/>
    <tripinfo id="bg_outer_ring_trucks.2" depart="275.00" departLane="e1_0" departPos="12.10" departSpeed="0.00" departDelay="0.00" arrival="362.00" arrivalLane="e4_0" arrivalPos="180.91" arrivalSpeed="11.87" duration="87.00" routeLength="758.58" waitingTime="3.00" waitingCount="1" stopTime="0.00" timeLoss="22.67" rerouteNo="1" devices="tripinfo_bg_outer_ring_trucks.2 routing_bg_outer_ring_trucks.2" vType="truck" speedFactor="0.87" vaporized=""/>
    <tripinfo id="bg_cross_1.7" depart="302.00" departLane="e10_0" departPos="5.10" departSpeed="0.00" departDelay="0.00" arrival="369.00" arrivalLane="e8_0" arrivalPos="164.91" arrivalSpeed="14.85" duration="67.00" routeLength="539.08" waitingTime="17.00" waitingCount="1" stopTime="0.00" timeLoss="30.70" rerouteNo="1" devices="tripinfo_bg_cross_1.7 routing_bg_cross_1.7" vType="car" speedFactor="1.13" vaporized=""/>
    <tripinfo id="bg_cross_2_short.2" depart="310.00" departLane="e7_rev_0" departPos="5.10" departSpeed="0.00" departDelay="0.00" arrival="369.00" arrivalLane="e11_0" arrivalPos="164.91" arrivalSpeed="15.97" duration="59.00" routeLength="369.50" waitingTime="20.00" waitingCount="2" stopTime="0.00" timeLoss="34.97" rerouteNo="0" devices="tripinfo_bg_cross_2_short.2 routing_bg_cross_2_short.2" vType="car" speedFactor="1.15" vaporized=""/>
    <tripinfo id="bg_cross_2_short.3" depart="318.00" departLane="e7_rev_0" departPos="5.10" departSpeed="0.00" departDelay="2.00" arrival="372.00" arrivalLane="e11_0" arrivalPos="164.91" arrivalSpeed="12.73" duration="54.00" routeLength="369.50" waitingTime="17.00" waitingCount="1" stopTime="0.00" timeLoss="26.92" rerouteNo="0" devices="tripinfo_bg_cross_2_short.3 routing_bg_cross_2_short.3" vType="car" speedFactor="1.01" vaporized=""/>
    <tripinfo id="bg_cross_2_short.4" depart="321.00" departLane="e7_rev_0" departPos="5.10" departSpeed="0.00" departDelay="1.00" arrival="373.00" arrivalLane="e11_0" arrivalPos="164.91" arrivalSpeed="15.10" duration="52.00" routeLength="369.50" waitingTime="16.00" waitingCount="1" stopTime="0.00" timeLoss="29.25" rerouteNo="0" devices="tripinfo_bg_cross_2_short.4 routing_bg_cross_2_short.4" vType="car" speedFactor="1.17" vaporized=""/>
    <tripinfo id="bg_cross_2_short.5" depart="330.00" departLane="e7_rev_0" departPos="5.10" departSpeed="0.00" departDelay="0.00" arrival="376.00" arrivalLane="e11_0" arrivalPos="164.91" arrivalSpeed="13.64" duration="46.00" routeLength="369.50" waitingTime="9.00" waitingCount="1" stopTime="0.00" timeLoss="19.17" rerouteNo="0" devices="tripinfo_bg_cross_2_short.5 routing_bg_cross_2_short.5" vType="car" speedFactor="1.02" vaporized=""/>
    <tripinfo id="bg_cross_2_short.6" depart="335.00" departLane="e7_rev_0" departPos="5.10" departSpeed="0.00" departDelay="0.00" arrival="378.00" arrivalLane="e11_0" arrivalPos="164.91" arrivalSpeed="12.91" duration="43.00" routeLength="369.50" waitingTime="4.00" waitingCount="1" stopTime="0.00" timeLoss="15.51" rerouteNo="0" devices="tripinfo_bg_cross_2_short.6 routing_bg_cross_2_short.6" vType="car" speedFactor="0.97" vaporized=""/>
    <tripinfo id="bg_traffic_main.13" depart="325.00" departLane="e6_0" departPos="5.10" departSpeed="0.00" departDelay="0.00" arrival="380.00" arrivalLane="e2_0" arrivalPos="180.91" arrivalSpeed="13.44" duration="55.00" routeLength="568.99" waitingTime="2.00" waitingCount="1" stopTime="0.00" timeLoss="13.04" rerouteNo="1" devices="tripinfo_bg_traffic_main.13 routing_bg_traffic_main.13" vType="car" speedFactor="0.99" vaporized=""/>
    <tripinfo id="bg_outer_ring_cars.4" depart="300.00" departLane="e4_rev_0" departPos="5.10" departSpeed="0.00" departDelay="0.00" arrival="383.00" arrivalLane="e1_rev_0" arrivalPos="180.91" arrivalSpeed="12.75" duration="83.00" routeLength="775.66" waitingTime="8.00" waitingCount="2" stopTime="0.00" timeLoss="22.66" rerouteNo="1" devices="tripinfo_bg_outer_ring_cars.4 routing_bg_outer_ring_cars.4" vType="car" speedFactor="0.95" vaporized=""/>
    <tripinfo id="bg_outer_ring_cars.5" depart="338.00" departLane="e4_rev_0" departPos="5.10" departSpeed="0.00" departDelay="0.50" arrival="397.00" arrivalLane="e1_rev_0" arrivalPos="180.91" arrivalSpeed="14.48" duration="59.00" routeLength="775.66" waitingTime="0.00" waitingCount="0" stopTime="0.00" timeLoss="6.69" rerouteNo="1" devices="tripinfo_bg_outer_ring_cars.5 routing_bg_outer_ring_cars.5" vType="car" speedFactor="1.10" vaporized=""/>
    <tripinfo id="bg_cross_1.8" depart="338.00" departLane="e10_0" departPos="5.10" departSpeed="0.00" departDelay="0.00" arrival="401.00" arrivalLane="e8_0" arrivalPos="164.91" arrivalSpeed="15.72" duration="63.00" routeLength="539.08" waitingTime="11.00" waitingCount="2" stopTime="0.00" timeLoss="29.64" rerouteNo="1" devices="tripinfo_bg_cross_1.8 routing_bg_cross_1.8" vType="car" speedFactor="1.18" vaporized=""/>
    <tripinfo id="bg_traffic_main.14" depart="350.00" departLane="e6_0" departPos="5.10" departSpeed="0.00" departDelay="0.00" arrival="404.00" arrivalLane="e2_0" arrivalPos="180.91" arrivalSpeed="12.45" duration="54.00" routeLength="568.99" waitingTime="0.00" waitingCount="0" stopTime="0.00" timeLoss="7.61" rerouteNo="1" devices="tripinfo_bg_traffic_main.14 routing_bg_traffic_main.14" vType="car" speedFactor="0.90" vaporized=""/>
    <tripinfo id="bg_cross_2_short.7" depart="363.00" departLane="e7_rev_0" departPos="5.10" departSpeed="0.00" departDelay="0.00" arrival="404.00" arrivalLane="e11_0" arrivalPos="164.91" arrivalSpeed="12.29" duration="41.00" routeLength="369.50" waitingTime="2.00" waitingCount="1" stopTime="0.00" timeLoss="12.67" rerouteNo="0" devices="tripinfo_bg_cross_2_short.7 routing_bg_cross_2_short.7" vType="car" speedFactor="0.96" vaporized=""/>
    <tripinfo id="bg_cross_2_short.8" depart="368.00" departLane="e7_rev_0" departPos="5.10" departSpeed="0.00" departDelay="1.00" arrival="405.00" arrivalLane="e11_0" arrivalPos="164.91" arrivalSpeed="14.96" duration="37.00" routeLength="369.50" waitingTime="0.00" waitingCount="0" stopTime="0.00" timeLoss="12.63" rerouteNo="0" devices="tripinfo_bg_cross_2_short.8 routing_bg_cross_2_short.8" vType="car" speedFactor="1.09" vaporized=""/>
    <tripinfo id="bg_cross_1.9" depart="377.00" departLane="e10_0" departPos="5.10" departSpeed="0.00" departDelay="3.00" arrival="428.00" arrivalLane="e8_0" arrivalPos="164.91" arrivalSpeed="13.24" duration="51.00" routeLength="539.08" waitingTime="0.00" waitingCount="0" stopTime="0.00" timeLoss="12.99" rerouteNo="1" devices="tripinfo_bg_cross_1.9 routing_bg_cross_1.9" vType="car" speedFactor="1.04" vaporized=""/>
    <tripinfo id="bg_cross_2_short.9" depart="376.00" departLane="e7_rev_0" departPos="5.10" departSpeed="0.00" departDelay="0.00" arrival="431.00" arrivalLane="e11_0" arrivalPos="164.91" arrivalSpeed="12.88" duration="55.00" routeLength="369.50" waitingTime="17.00" waitingCount="1" stopTime="0.00" timeLoss="27.44" rerouteNo="0" devices="tripinfo_bg_cross_2_short.9 routing_bg_cross_2_short.9" vType="car" speedFactor="1.00" vaporized=""/>
    <tripinfo id="bg_traffic_main.15" depart="375.00" departLane="e6_0" departPos="5.10" departSpeed="0.00" departDelay="0.00" arrival="434.00" arrivalLane="e2_0" arrivalPos="180.91" arrivalSpeed="13.84" duration="59.00" routeLength="568.99" waitingTime="3.00" waitingCount="1" stopTime="0.00" timeLoss="18.43" rerouteNo="1" devices="tripinfo_bg_traffic_main.15 routing_bg_traffic_main.15" vType="car" speedFactor="1.04" vaporized=""/>
    <tripinfo id="bg_cross_2_short.10" depart="379.00" departLane="e7_rev_0" departPos="5.10" departSpeed="0.00" departDelay="2.00" arrival="434.00" arrivalLane="e11_0" arrivalPos="164.91" arrivalSpeed="11.57" duration="55.00" routeLength="369.50" waitingTime="16.00" waitingCount="1" stopTime="0.00" timeLoss="24.82" rerouteNo="0" devices="tripinfo_bg_cross_2_short.10 routing_bg_cross_2_short.10" vType="car" speedFactor="0.90" vaporized=""/>
    <tripinfo id="bg_outer_ring_trucks.3" depart="363.00" departLane="e1_0" departPos="12.10" departSpeed="0.00" departDelay="0.50" arrival="440.00" arrivalLane="e4_0" arrivalPos="180.91" arrivalSpeed="13.95" duration="77.00" routeLength="758.58" waitingTime="0.00" waitingCount="0" stopTime="0.00" timeLoss="22.23" rerouteNo="1" devices="tripinfo_bg_outer_ring_trucks.3 routing_bg_outer_ring_trucks.3" vType="truck" speedFactor="1.03" vaporized=""/>
    <tripinfo id="bg_outer_ring_cars.6" depart="376.00" departLane="e4_rev_0" departPos="5.10" departSpeed="0.00" departDelay="1.00" arrival="448.00" arrivalLane="e1_rev_0" arrivalPos="180.91" arrivalSpeed="14.51" duration="72.00" routeLength="775.66" waitingTime="7.00" waitingCount="1" stopTime="0.00" timeLoss="20.03" rerouteNo="1" devices="tripinfo_bg_outer_ring_cars.6 routing_bg_outer_ring_cars.6" vType="car" speedFactor="1.09" vaporized=""/>
    <tripinfo id="bg_traffic_main.16" depart="400.00" departLane="e6_0" departPos="5.10" departSpeed="0.00" departDelay="0.00" arrival="455.00" arrivalLane="e2_0" arrivalPos="180.91" arrivalSpeed="11.25" duration="55.00" routeLength="568.99" waitingTime="0.00" waitingCount="0" stopTime="0.00" timeLoss="5.85" rerouteNo="1" devices="tripinfo_bg_traffic_main.16 routing_bg_traffic_main.16" vType="car" speedFactor="0.85" vaporized=""/>
    <tripinfo id="bg_cross_2_short.11" depart="392.00" departLane="e7_rev_0" departPos="5.10" departSpeed="0.00" departDelay="0.00" arrival="460.00" arrivalLane="e11_0" arrivalPos="164.91" arrivalSpeed="11.02" duration="68.00" routeLength="369.50" waitingTime="23.00" waitingCount="2" stopTime="0.00" timeLoss="36.82" rerouteNo="0" devices="tripinfo_bg_cross_2_short.11 routing_bg_cross_2_short.11" vType="car" speedFactor="0.88" vaporized=""/>
    <tripinfo id="bg_cross_2_short.12" depart="421.00" departLane="e7_rev_0" departPos="5.10" departSpeed="0.00" departDelay="0.00" arrival="461.00" arrivalLane="e11_0" arrivalPos="164.91" arrivalSpeed="13.45" duration="40.00" routeLength="369.50" waitingTime="1.00" waitingCount="1" stopTime="0.00" timeLoss="13.57" rerouteNo="0" devices="tripinfo_bg_cross_2_short.12 routing_bg_cross_2_short.12" vType="car" speedFactor="1.02" vaporized=""/>
    <tripinfo id="bg_outer_ring_cars.7" depart="413.00" departLane="e4_rev_0" departPos="5.10" departSpeed="0.00" departDelay="0.50" arrival="481.00" arrivalLane="e1_rev_0" arrivalPos="180.91" arrivalSpeed="16.20" duration="68.00" routeLength="775.66" waitingTime="3.00" waitingCount="1" stopTime="0.00" timeLoss="19.19" rerouteNo="1" devices="tripinfo_bg_outer_ring_cars.7 routing_bg_outer_ring_cars.7" vType="car" speedFactor="1.17" vaporized=""/>
    <tripinfo id="bg_traffic_main.17" depart="425.00" departLane="e6_0" departPos="5.10" departSpeed="0.00" departDelay="0.00" arrival="482.00" arrivalLane="e2_0" arrivalPos="180.91" arrivalSpeed="15.00" duration="57.00" routeLength="568.99" waitingTime="4.00" waitingCount="1" stopTime="0.00" timeLoss="18.48" rerouteNo="1" devices="tripinfo_bg_traffic_main.17 routing_bg_traffic_main.17" vType="car" speedFactor="1.10" vaporized=""/>
    <tripinfo id="bg_cross_2_short.13" depart="443.00" departLane="e7_rev_0" departPos="5.10" departSpeed="0.00" departDelay="0.00" arrival="484.00" arrivalLane="e11_0" arrivalPos="164.91" arrivalSpeed="13.01" duration="41.00" routeLength="369.50" waitingTime="6.00" waitingCount="1" stopTime="0.00" timeLoss="13.90" rerouteNo="0" devices="tripinfo_bg_cross_2_short.13 routing_bg_cross_2_short.13" vType="car" speedFactor="1.00" vaporized=""/>
    <tripinfo id="bg_cross_1.10" depart="412.00" departLane="e10_0" departPos="5.10" departSpeed="0.00" departDelay="2.00" arrival="486.00" arrivalLane="e8_0" arrivalPos="164.91" arrivalSpeed="11.39" duration="74.00" routeLength="539.08" waitingTime="16.00" waitingCount="1" stopTime="0.00" timeLoss="27.75" rerouteNo="1" devices="tripinfo_bg_cross_1.10 routing_bg_cross_1.10" vType="car" speedFactor="0.85" vaporized=""/>
    <tripinfo id="bg_cross_2_short.14" depart="453.00" departLane="e7_rev_0" departPos="5.10" departSpeed="0.00" departDelay="0.00" arrival="486.00" arrivalLane="e11_0" arrivalPos="164.91" arrivalSpeed="13.04" duration="33.00" routeLength="369.50" waitingTime="0.00" waitingCount="0" stopTime="0.00" timeLoss="5.33" rerouteNo="0" devices="tripinfo_bg_cross_2_short.14 routing_bg_cross_2_short.14" vType="car" speedFactor="0.97" vaporized=""/>
    <tripinfo id="bg_cross_2_short.15" depart="456.00" departLane="e7_rev_0" departPos="5.10" departSpeed="0.00" departDelay="0.00" arrival="488.00" arrivalLane="e11_0" arrivalPos="164.91" arrivalSpeed="14.32" duration="32.00" routeLength="369.50" waitingTime="0.00" waitingCount="0" stopTime="0.00" timeLoss="6.86" rerouteNo="0" devices="tripinfo_bg_cross_2_short.15 routing_bg_cross_2_short.15" vType="car" speedFactor="1.08" vaporized=""/>
    <tripinfo id="bg_cross_1.11" depart="448.00" departLane="e10_0" departPos="5.10" departSpeed="0.00" departDelay="2.00" arrival="514.00" arrivalLane="e8_0" arrivalPos="164.91" arrivalSpeed="13.47" duration="66.00" routeLength="539.08" waitingTime="13.00" waitingCount="1" stopTime="0.00" timeLoss="25.23" rerouteNo="1" devices="tripinfo_bg_cross_1.11 routing_bg_cross_1.11" vType="car" speedFactor="1.00" vaporized=""/>
    <tripinfo id="bg_traffic_main.18" depart="450.00" departLane="e6_0" departPos="5.10" departSpeed="0.00" departDelay="0.00" arrival="519.00" arrivalLane="e2_0" arrivalPos="180.91" arrivalSpeed="11.47" duration="69.00" routeLength="568.99" waitingTime="8.00" waitingCount="1" stopTime="0.00" timeLoss="22.11" rerouteNo="1" devices="tripinfo_bg_traffic_main.18 routing_bg_traffic_main.18" vType="car" speedFactor="0.90" vaporized=""/>
    <tripinfo id="bg_outer_ring_cars.8" depart="450.00" departLane="e4_rev_0" departPos="5.10" departSpeed="0.00" departDelay="0.00" arrival="531.00" arrivalLane="e1_rev_0" arrivalPos="180.91" arrivalSpeed="13.43" duration="81.00" routeLength="775.66" waitingTime="7.00" waitingCount="1" stopTime="0.00" timeLoss="25.86" rerouteNo="1" devices="tripinfo_bg_outer_ring_cars.8 routing_bg_outer_ring_cars.8" vType="car" speedFactor="1.02" vaporized=""/>
    <tripinfo id="bg_traffic_main.19" depart="475.00" departLane="e6_0" departPos="5.10" departSpeed="0.00" departDelay="0.00" arrival="531.00" arrivalLane="e2_0" arrivalPos="180.91" arrivalSpeed="14.48" duration="56.00" routeLength="568.99" waitingTime="4.00" waitingCount="1" stopTime="0.00" timeLoss="18.11" rerouteNo="1" devices="tripinfo_bg_traffic_main.19 routing_bg_traffic_main.19" vType="car" speedFactor="1.12" vaporized=""/>
    <tripinfo id="bg_cross_1.12" depart="482.00" departLane="e10_0" departPos="5.10" departSpeed="0.00" departDelay="0.00" arrival="541.00" arrivalLane="e8_0" arrivalPos="164.91" arrivalSpeed="14.04" duration="59.00" routeLength="539.08" waitingTime="7.00" waitingCount="1" stopTime="0.00" timeLoss="19.62" rerouteNo="1" devices="tripinfo_bg_cross_1.12 routing_bg_cross_1.12" vType="car" speedFactor="1.02" vaporized=""/>