<?xml version="1.0" encoding="UTF-8"?>

<!-- generated on 2025-10-19 22:07:30 by Eclipse SUMO GUI Version 1.24.0
<sumoConfiguration xmlns:xsi="http://www.w3.org/2001/XMLSchema-instance" xsi:noNamespaceSchemaLocation="http://sumo.dlr.de/xsd/sumoConfiguration.xsd">

    <input>
        <net-file value="hexagon.net.xml"/>
        <route-files value="hexagon.rou.xml"/>
        <additional-files value="hospitals.add.xml ,patients.add.xml"/>
    </input>

    <output>
        <tripinfo-output value="tripinfo.xml"/>
    </output>

    <time>
        <begin value="0"/>
        <end value="1000"/>
    </time>

</sumoConfiguration>
-->

<tripinfos xmlns:xsi="http://www.w3.org/2001/XMLSchema-instance" xsi:noNamespaceSchemaLocation="http://sumo.dlr.de/xsd/tripinfo_file.xsd">
    <tripinfo id="amb_1" depart="0.00" departLane="e5_0" departPos="161.19" departSpeed="0.00" departDelay="0.00" arrival="3.00" arrivalLane="e5_0" arrivalPos="180.91" arrivalSpeed="12.00" duration="3.00" routeLength="19.72" waitingTime="0.00" waitingCount="0" stopTime="0.00" timeLoss="1.27" rerouteNo="0" devices="tripinfo_amb_1" vType="ambulance" speedFactor="1.00" vaporized=""/>
    <tripinfo id="amb_2" depart="0.00" departLane="e10_0" departPos="117.50" departSpeed="0.00" departDelay="0.00" arrival="5.00" arrivalLane="e10_0" arrivalPos="164.91" arrivalSpeed="13.89" duration="5.00" routeLength="47.41" waitingTime="0.00" waitingCount="0" stopTime="0.00" timeLoss="1.27" rerouteNo="0" devices="tripinfo_amb_2" vType="ambulance" speedFactor="1.00" vaporized=""/>
    <tripinfo id="amb_7" depart="0.00" departLane="e7_rev_0" departPos="122.57" departSpeed="0.00" departDelay="0.00" arrival="5.00" arrivalLane="e7_rev_0" arrivalPos="164.91" arrivalSpeed="13.89" duration="5.00" routeLength="42.34" waitingTime="0.00" waitingCount="0" stopTime="0.00" timeLoss="1.27" rerouteNo="0" devices="tripinfo_amb_7" vType="ambulance" speedFactor="1.00" vaporized=""/>
    <tripinfo id="amb_5" depart="0.00" departLane="e3_0" departPos="106.73" departSpeed="0.00" departDelay="0.00" arrival="7.00" arrivalLane="e3_0" arrivalPos="180.91" arrivalSpeed="13.89" duration="7.00" routeLength="74.18" waitingTime="0.00" waitingCount="0" stopTime="0.00" timeLoss="1.27" rerouteNo="0" devices="tripinfo_amb_5" vType="ambulance" speedFactor="1.00" vaporized=""/>
    <tripinfo id="amb_4" depart="0.00" departLane="e2_0" departPos="88.91" departSpeed="0.00" departDelay="0.00" arrival="8.00" arrivalLane="e2_0" arrivalPos="180.91" arrivalSpeed="13.89" duration="8.00" routeLength="92.00" waitingTime="0.00" waitingCount="0" stopTime="0.00" timeLoss="1.27" rerouteNo="0" devices="tripinfo_amb_4" vType="ambulance" speedFactor="1.00" vaporized=""/>
    <tripinfo id="amb_8" depart="0.00" departLane="e11_rev_0" departPos="40.82" departSpeed="0.00" departDelay="0.00" arrival="11.00" arrivalLane="e11_rev_0" arrivalPos="164.91" arrivalSpeed="13.89" duration="11.00" routeLength="124.09" waitingTime="0.00" waitingCount="0" stopTime="0.00" timeLoss="1.27" rerouteNo="0" devices="tripinfo_amb_8" vType="ambulance" speedFactor="1.00" vaporized=""/>
    <tripinfo id="amb_3" depart="0.00" departLane="e1_0" departPos="8.23" departSpeed="0.00" departDelay="0.00" arrival="14.00" arrivalLane="e1_0" arrivalPos="180.91" arrivalSpeed="13.89" duration="14.00" routeLength="172.68" waitingTime="0.00" waitingCount="0" stopTime="0.00" timeLoss="1.27" rerouteNo="0" devices="tripinfo_amb_3" vType="ambulance" speedFactor="1.00" vaporized=""/>
    <tripinfo id="amb_6" depart="0.00" departLane="e4_0" departPos="7.89" departSpeed="0.00" departDelay="0.00" arrival="14.00" arrivalLane="e4_0" arrivalPos="180.91" arrivalSpeed="13.89" duration="14.00" routeLength="173.02" waitingTime="0.00" waitingCount="0" stopTime="0.00" timeLoss="1.27" rerouteNo="0" devices="tripinfo_amb_6" vType="ambulance" speedFactor="1.00" vaporized=""/>
