<?xml version="1.0" encoding="UTF-8"?>

<!-- generated on 2025-10-20 02:28:21 by Eclipse SUMO GUI Version 1.24.0
<sumoConfiguration xmlns:xsi="http://www.w3.org/2001/XMLSchema-instance" xsi:noNamespaceSchemaLocation="http://sumo.dlr.de/xsd/sumoConfiguration.xsd">

    <input>
        <net-file value="hexagon.net.xml"/>
        <route-files value="hexagon.rou.xml"/>
        <additional-files value="hospitals.add.xml"/>
    </input>

    <output>
        <tripinfo-output value="tripinfo_results.xml"/>
    </output>

    <time>
        <begin value="0"/>
        <end value="1000"/>
    </time>

    <traci_server>
        <remote-port value="65266"/>
    </traci_server>

    <gui_only>
        <quit-on-end value="true"/>
        <start value="true"/>
    </gui_only>

</sumoConfiguration>
-->

<tripinfos xmlns:xsi="http://www.w3.org/2001/XMLSchema-instance" xsi:noNamespaceSchemaLocation="http://sumo.dlr.de/xsd/tripinfo_file.xsd">
    <tripinfo id="amb_4" depart="0.00" departLane="e2_0" departPos="88.91" departSpeed="0.00" departDelay="0.00" arrival="19.00" arrivalLane="e2_0" arrivalPos="180.91" arrivalSpeed="13.89" duration="19.00" routeLength="92.00" waitingTime="10.00" waitingCount="1" stopTime="0.00" timeLoss="11.98" rerouteNo="0" devices="tripinfo_amb_4" vType="ambulance" speedFactor="1.00" vaporized=""/>
    <tripinfo id="bg_traffic.0" depart="0.00" departLane="e6_0" departPos="5.10" departSpeed="0.00" departDelay="0.00" arrival="45.00" arrivalLane="e2_0" arrivalPos="180.91" arrivalSpeed="13.63" duration="45.00" routeLength="568.99" waitingTime="0.00" waitingCount="0" stopTime="0.00" timeLoss="5.08" rerouteNo="1" devices="tripinfo_bg_traffic.0 routing_bg_traffic.0" vType="car" speedFactor="1.06" vaporized=""/>
    <tripinfo id="bg_traffic.1" depart="10.00" departLane="e6_0" departPos="5.10" departSpeed="0.00" departDelay="0.00" arrival="60.00" arrivalLane="e2_0" arrivalPos="180.91" arrivalSpeed="12.12" duration="50.00" routeLength="568.99" waitingTime="0.00" waitingCount="0" stopTime="0.00" timeLoss="4.98" rerouteNo="1" devices="tripinfo_bg_traffic.1 routing_bg_traffic.1" vType="car" speedFactor="0.94" vaporized=""/>
    <tripinfo id="bg_traffic.2" depart="20.00" departLane="e6_0" departPos="5.10" departSpeed="0.00" departDelay="0.00" arrival="67.00" arrivalLane="e2_0" arrivalPos="180.91" arrivalSpeed="13.04" duration="47.00" routeLength="568.99" waitingTime="0.00" waitingCount="0" stopTime="0.00" timeLoss="5.81" rerouteNo="1" devices="tripinfo_bg_traffic.2 routing_bg_traffic.2" vType="car" speedFactor="1.01" vaporized=""/>
    <tripinfo id="bg_traffic.3" depart="32.00" departLane="e6_0" departPos="5.10" departSpeed="0.00" departDelay="2.00" arrival="121.00" arrivalLane="e2_0" arrivalPos="180.91" arrivalSpeed="14.62" duration="89.00" routeLength="568.99" waitingTime="38.00" waitingCount="1" stopTime="0.00" timeLoss="49.90" rerouteNo="1" devices="tripinfo_bg_traffic.3 routing_bg_traffic.3" vType="car" speedFactor="1.08" vaporized=""/>
    <tripinfo id="bg_traffic.4" depart="40.00" departLane="e6_0" departPos="5.10" departSpeed="0.00" departDelay="0.00" arrival="124.00" arrivalLane="e2_0" arrivalPos="180.91" arrivalSpeed="14.22" duration="84.00" routeLength="568.99" waitingTime="33.00" waitingCount="1" stopTime="0.00" timeLoss="42.95" rerouteNo="1" devices="tripinfo_bg_traffic.4 routing_bg_traffic.4" vType="car" speedFactor="1.03" vaporized=""/>
    <tripinfo id="bg_traffic.5" depart="50.00" departLane="e6_0" departPos="5.10" departSpeed="0.00" departDelay="0.00" arrival="133.00" arrivalLane="e2_0" arrivalPos="180.91" arrivalSpeed="10.95" duration="83.00" routeLength="568.99" waitingTime="22.00" waitingCount="1" stopTime="0.00" timeLoss="32.77" rerouteNo="1" devices="tripinfo_bg_traffic.5 routing_bg_traffic.5" vType="car" speedFactor="0.83" vaporized=""/>
    <tripinfo id="bg_traffic.6" depart="60.00" departLane="e6_0" departPos="5.10" departSpeed="0.00" departDelay="0.00" arrival="135.00" arrivalLane="e2_0" arrivalPos="180.91" arrivalSpeed="13.60" duration="75.00" routeLength="568.99" waitingTime="14.00" waitingCount="1" stopTime="0.00" timeLoss="34.71" rerouteNo="1" devices="tripinfo_bg_traffic.6 routing_bg_traffic.6" vType="car" speedFactor="1.05" vaporized=""/>
    <tripinfo id="bg_traffic.7" depart="70.00" departLane="e6_0" departPos="5.10" departSpeed="0.00" departDelay="0.00" arrival="137.00" arrivalLane="e2_0" arrivalPos="180.91" arrivalSpeed="11.51" duration="67.00" routeLength="568.99" waitingTime="6.00" waitingCount="1" stopTime="0.00" timeLoss="19.52" rerouteNo="1" devices="tripinfo_bg_traffic.7 routing_bg_traffic.7" vType="car" speedFactor="0.89" vaporized=""/>
    <tripinfo id="bg_traffic.8" depart="80.00" departLane="e6_0" departPos="5.10" departSpeed="0.00" departDelay="0.00" arrival="139.00" arrivalLane="e2_0" arrivalPos="180.91" arrivalSpeed="12.42" duration="59.00" routeLength="568.99" waitingTime="0.00" waitingCount="0" stopTime="0.00" timeLoss="13.82" rerouteNo="1" devices="tripinfo_bg_traffic.8 routing_bg_traffic.8" vType="car" speedFactor="0.94" vaporized=""/>
    <tripinfo id="bg_traffic.9" depart="90.00" departLane="e6_0" departPos="5.10" departSpeed="0.00" departDelay="0.00" arrival="145.00" arrivalLane="e2_0" arrivalPos="180.91" arrivalSpeed="11.33" duration="55.00" routeLength="568.99" waitingTime="0.00" waitingCount="0" stopTime="0.00" timeLoss="5.94" rerouteNo="1" devices="tripinfo_bg_traffic.9 routing_bg_traffic.9" vType="car" speedFactor="0.86" vaporized=""/>
    <tripinfo id="bg_traffic.10" depart="100.00" departLane="e6_0" departPos="5.10" departSpeed="0.00" departDelay="0.00" arrival="147.00" arrivalLane="e2_0" arrivalPos="180.91" arrivalSpeed="14.27" duration="47.00" routeLength="568.99" waitingTime="0.00" waitingCount="0" stopTime="0.00" timeLoss="7.94" rerouteNo="1" devices="tripinfo_bg_traffic.10 routing_bg_traffic.10" vType="car" speedFactor="1.09" vaporized=""/>
    <tripinfo id="bg_traffic.11" depart="110.00" departLane="e6_0" departPos="5.10" departSpeed="0.00" departDelay="0.00" arrival="156.00" arrivalLane="e2_0" arrivalPos="180.91" arrivalSpeed="13.19" duration="46.00" routeLength="568.99" waitingTime="0.00" waitingCount="0" stopTime="0.00" timeLoss="5.16" rerouteNo="1" devices="tripinfo_bg_traffic.11 routing_bg_traffic.11" vType="car" speedFactor="1.03" vaporized=""/>
    <tripinfo id="bg_traffic.12" depart="120.00" departLane="e6_0" departPos="5.10" departSpeed="0.00" departDelay="0.00" arrival="211.00" arrivalLane="e2_0" arrivalPos="180.91" arrivalSpeed="14.12" duration="91.00" routeLength="568.99" waitingTime="41.00" waitingCount="1" stopTime="0.00" timeLoss="51.38" rerouteNo="1" devices="tripinfo_bg_traffic.12 routing_bg_traffic.12" vType="car" speedFactor="1.05" vaporized=""/>
    <tripinfo id="bg_traffic.13" depart="130.00" departLane="e6_0" departPos="5.10" departSpeed="0.00" departDelay="0.00" arrival="213.00" arrivalLane="e2_0" arrivalPos="180.91" arrivalSpeed="15.37" duration="83.00" routeLength="568.99" waitingTime="33.00" waitingCount="1" stopTime="0.00" timeLoss="45.75" rerouteNo="1" devices="tripinfo_bg_traffic.13 routing_bg_traffic.13" vType="car" speedFactor="1.12" vaporized=""/>
    <tripinfo id="bg_traffic.14" depart="140.00" departLane="e6_0" departPos="5.10" departSpeed="0.00" departDelay="0.00" arrival="217.00" arrivalLane="e2_0" arrivalPos="180.91" arrivalSpeed="13.11" duration="77.00" routeLength="568.99" waitingTime="24.00" waitingCount="1" stopTime="0.00" timeLoss="34.79" rerouteNo="1" devices="tripinfo_bg_traffic.14 routing_bg_traffic.14" vType="car" speedFactor="0.99" vaporized=""/>
    <tripinfo id="bg_traffic.15" depart="150.00" departLane="e6_0" departPos="5.10" departSpeed="0.00" departDelay="0.00" arrival="222.00" arrivalLane="e2_0" arrivalPos="180.91" arrivalSpeed="11.93" duration="72.00" routeLength="568.99" waitingTime="14.00" waitingCount="1" stopTime="0.00" timeLoss="26.25" rerouteNo="1" devices="tripinfo_bg_traffic.15 routing_bg_traffic.15" vType="car" speedFactor="0.93" vaporized=""/>
    <tripinfo id="bg_traffic.16" depart="160.00" departLane="e6_0" departPos="5.10" departSpeed="0.00" departDelay="0.00" arrival="226.00" arrivalLane="e2_0" arrivalPos="180.91" arrivalSpeed="11.21" duration="66.00" routeLength="568.99" waitingTime="6.00" waitingCount="1" stopTime="0.00" timeLoss="18.41" rerouteNo="1" devices="tripinfo_bg_traffic.16 routing_bg_traffic.16" vType="car" speedFactor="0.88" vaporized=""/>
    <tripinfo id="bg_traffic.17" depart="170.00" departLane="e6_0" departPos="5.10" departSpeed="0.00" departDelay="0.00" arrival="228.00" arrivalLane="e2_0" arrivalPos="180.91" arrivalSpeed="12.75" duration="58.00" routeLength="568.99" waitingTime="0.00" waitingCount="0" stopTime="0.00" timeLoss="13.20" rerouteNo="1" devices="tripinfo_bg_traffic.17 routing_bg_traffic.17" vType="car" speedFactor="0.94" vaporized=""/>
    <tripinfo id="bg_traffic.18" depart="180.00" departLane="e6_0" departPos="5.10" departSpeed="0.00" departDelay="0.00" arrival="231.00" arrivalLane="e2_0" arrivalPos="180.91" arrivalSpeed="12.25" duration="51.00" routeLength="568.99" waitingTime="0.00" waitingCount="0" stopTime="0.00" timeLoss="5.82" rerouteNo="1" devices="tripinfo_bg_traffic.18 routing_bg_traffic.18" vType="car" speedFactor="0.94" vaporized=""/>
    <tripinfo id="bg_traffic.19" depart="190.00" departLane="e6_0" departPos="5.10" departSpeed="0.00" departDelay="0.00" arrival="232.00" arrivalLane="e2_0" arrivalPos="180.91" arrivalSpeed="14.85" duration="42.00" routeLength="568.99" waitingTime="0.00" waitingCount="0" stopTime="0.00" timeLoss="6.07" rerouteNo="1" devices="tripinfo_bg_traffic.19 routing_bg_traffic.19" vType="car" speedFactor="1.16" vaporized=""/>
    <tripinfo id="bg_traffic.20" depart="200.00" departLane="e6_0" departPos="5.10" departSpeed="0.00" departDelay="0.00" arrival="248.00" arrivalLane="e2_0" arrivalPos="180.91" arrivalSpeed="13.94" duration="48.00" routeLength="568.99" waitingTime="0.00" waitingCount="0" stopTime="0.00" timeLoss="6.14" rerouteNo="1" devices="tripinfo_bg_traffic.20 routing_bg_traffic.20" vType="car" speedFactor="1.02" vaporized=""/>
    <tripinfo id="bg_traffic.21" depart="210.00" departLane="e6_0" departPos="5.10" departSpeed="0.00" departDelay="0.00" arrival="303.00" arrivalLane="e2_0" arrivalPos="180.91" arrivalSpeed="13.77" duration="93.00" routeLength="568.99" waitingTime="40.00" waitingCount="1" stopTime="0.00" timeLoss="51.36" rerouteNo="1" devices="tripinfo_bg_traffic.21 routing_bg_traffic.21" vType="car" speedFactor="1.01" vaporized=""/>
    <tripinfo id="bg_traffic.22" depart="220.00" departLane="e6_0" departPos="5.10" departSpeed="0.00" departDelay="0.00" arrival="307.00" arrivalLane="e2_0" arrivalPos="180.91" arrivalSpeed="12.68" duration="87.00" routeLength="568.99" waitingTime="31.00" waitingCount="1" stopTime="0.00" timeLoss="43.60" rerouteNo="1" devices="tripinfo_bg_traffic.22 routing_bg_traffic.22" vType="car" speedFactor="0.97" vaporized=""/>
    <tripinfo id="bg_traffic.23" depart="230.00" departLane="e6_0" departPos="5.10" departSpeed="0.00" departDelay="0.00" arrival="311.00" arrivalLane="e2_0" arrivalPos="180.91" arrivalSpeed="12.23" duration="81.00" routeLength="568.99" waitingTime="24.00" waitingCount="1" stopTime="0.00" timeLoss="33.88" rerouteNo="1" devices="tripinfo_bg_traffic.23 routing_bg_traffic.23" vType="car" speedFactor="0.89" vaporized=""/>
    <tripinfo id="bg_traffic.24" depart="240.00" departLane="e6_0" departPos="5.10" departSpeed="0.00" departDelay="0.00" arrival="315.00" arrivalLane="e2_0" arrivalPos="180.91" arrivalSpeed="11.26" duration="75.00" routeLength="568.99" waitingTime="13.00" waitingCount="1" stopTime="0.00" timeLoss="24.48" rerouteNo="1" devices="tripinfo_bg_traffic.24 routing_bg_traffic.24" vType="car" speedFactor="0.83" vaporized=""/>
    <tripinfo id="bg_traffic.25" depart="250.00" departLane="e6_0" departPos="5.10" departSpeed="0.00" departDelay="0.00" arrival="317.00" arrivalLane="e2_0" arrivalPos="180.91" arrivalSpeed="10.82" duration="67.00" routeLength="568.99" waitingTime="6.00" waitingCount="1" stopTime="0.00" timeLoss="19.05" rerouteNo="1" devices="tripinfo_bg_traffic.25 routing_bg_traffic.25" vType="car" speedFactor="0.87" vaporized=""/>
    <tripinfo id="bg_traffic.26" depart="260.00" departLane="e6_0" departPos="5.10" departSpeed="0.00" departDelay="0.00" arrival="319.00" arrivalLane="e2_0" arrivalPos="180.91" arrivalSpeed="11.91" duration="59.00" routeLength="568.99" waitingTime="0.00" waitingCount="0" stopTime="0.00" timeLoss="13.10" rerouteNo="1" devices="tripinfo_bg_traffic.26 routing_bg_traffic.26" vType="car" speedFactor="0.92" vaporized=""/>
    <tripinfo id="bg_traffic.27" depart="270.00" departLane="e6_0" departPos="5.10" departSpeed="0.00" departDelay="0.00" arrival="321.00" arrivalLane="e2_0" arrivalPos="180.91" arrivalSpeed="12.32" duration="51.00" routeLength="568.99" waitingTime="0.00" waitingCount="0" stopTime="0.00" timeLoss="6.30" rerouteNo="1" devices="tripinfo_bg_traffic.27 routing_bg_traffic.27" vType="car" speedFactor="0.95" vaporized=""/>
    <tripinfo id="bg_traffic.28" depart="280.00" departLane="e6_0" departPos="5.10" departSpeed="0.00" departDelay="0.00" arrival="323.00" arrivalLane="e2_0" arrivalPos="180.91" arrivalSpeed="14.92" duration="43.00" routeLength="568.99" waitingTime="0.00" waitingCount="0" stopTime="0.00" timeLoss="5.66" rerouteNo="1" devices="tripinfo_bg_traffic.28 routing_bg_traffic.28" vType="car" speedFactor="1.13" vaporized=""/>
    <tripinfo id="bg_traffic.29" depart="290.00" departLane="e6_0" departPos="5.10" departSpeed="0.00" departDelay="0.00" arrival="341.00" arrivalLane="e2_0" arrivalPos="180.91" arrivalSpeed="12.69" duration="51.00" routeLength="568.99" waitingTime="0.00" waitingCount="0" stopTime="0.00" timeLoss="5.66" rerouteNo="1" devices="tripinfo_bg_traffic.29 routing_bg_traffic.29" vType="car" speedFactor="0.93" vaporized=""/>
    <tripinfo id="amb_7" depart="0.00" departLane="e7_rev_0" departPos="122.57" departSpeed="0.00" departDelay="0.00" arrival="376.00" arrivalLane="e4_0" arrivalPos="180.91" arrivalSpeed="13.89" duration="376.00" routeLength="804.76" waitingTime="309.00" waitingCount="2" stopTime="0.00" timeLoss="316.46" rerouteNo="2" devices="tripinfo_amb_7" vType="ambulance" speedFactor="1.00" vaporized=""/>
    <tripinfo id="bg_traffic.30" depart="300.00" departLane="e6_0" departPos="5.10" departSpeed="0.00" departDelay="0.00" arrival="389.00" arrivalLane="e2_0" arrivalPos="180.91" arrivalSpeed="16.02" duration="89.00" routeLength="568.99" waitingTime="42.00" waitingCount="1" stopTime="0.00" timeLoss="52.66" rerouteNo="1" devices="tripinfo_bg_traffic.30 routing_bg_traffic.30" vType="car" speedFactor="1.18" vaporized=""/>
    <tripinfo id="bg_traffic.31" depart="310.00" departLane="e6_0" departPos="5.10" departSpeed="0.00" departDelay="0.00" arrival="391.00" arrivalLane="e2_0" arrivalPos="180.91" arrivalSpeed="14.88" duration="81.00" routeLength="568.99" waitingTime="33.00" waitingCount="1" stopTime="0.00" timeLoss="44.83" rerouteNo="1" devices="tripinfo_bg_traffic.31 routing_bg_traffic.31" vType="car" speedFactor="1.15" vaporized=""/>
    <tripinfo id="bg_traffic.32" depart="320.00" departLane="e6_0" departPos="5.10" departSpeed="0.00" departDelay="0.00" arrival="397.00" arrivalLane="e2_0" arrivalPos="180.91" arrivalSpeed="13.25" duration="77.00" routeLength="568.99" waitingTime="23.00" waitingCount="1" stopTime="0.00" timeLoss="34.63" rerouteNo="1" devices="tripinfo_bg_traffic.32 routing_bg_traffic.32" vType="car" speedFactor="1.01" vaporized=""/>
    <tripinfo id="bg_traffic.33" depart="330.00" departLane="e6_0" departPos="5.10" departSpeed="0.00" departDelay="0.00" arrival="398.00" arrivalLane="e2_0" arrivalPos="180.91" arrivalSpeed="15.87" duration="68.00" routeLength="568.99" waitingTime="17.00" waitingCount="1" stopTime="0.00" timeLoss="32.04" rerouteNo="1" devices="tripinfo_bg_traffic.33 routing_bg_traffic.33" vType="car" speedFactor="1.17" vaporized=""/>
    <tripinfo id="bg_traffic.34" depart="340.00" departLane="e6_0" departPos="5.10" departSpeed="0.00" departDelay="0.00" arrival="401.00" arrivalLane="e2_0" arrivalPos="180.91" arrivalSpeed="13.11" duration="61.00" routeLength="568.99" waitingTime="6.00" waitingCount="1" stopTime="0.00" timeLoss="18.79" rerouteNo="1" devices="tripinfo_bg_traffic.34 routing_bg_traffic.34" vType="car" speedFactor="0.99" vaporized=""/>
    <tripinfo id="bg_traffic.35" depart="350.00" departLane="e6_0" departPos="5.10" departSpeed="0.00" departDelay="0.00" arrival="403.00" arrivalLane="e2_0" arrivalPos="180.91" arrivalSpeed="13.54" duration="53.00" routeLength="568.99" waitingTime="0.00" waitingCount="0" stopTime="0.00" timeLoss="11.51" rerouteNo="1" devices="tripinfo_bg_traffic.35 routing_bg_traffic.35" vType="car" speedFactor="1.02" vaporized=""/>
    <tripinfo id="bg_traffic.36" depart="360.00" departLane="e6_0" departPos="5.10" departSpeed="0.00" departDelay="0.00" arrival="408.00" arrivalLane="e2_0" arrivalPos="180.91" arrivalSpeed="12.77" duration="48.00" routeLength="568.99" waitingTime="0.00" waitingCount="0" stopTime="0.00" timeLoss="5.26" rerouteNo="1" devices="tripinfo_bg_traffic.36 routing_bg_traffic.36" vType="car" speedFactor="0.97" vaporized=""/>
    <tripinfo id="bg_traffic.37" depart="370.00" departLane="e6_0" departPos="5.10" departSpeed="0.00" departDelay="0.00" arrival="412.00" arrivalLane="e2_0" arrivalPos="180.91" arrivalSpeed="15.46" duration="42.00" routeLength="568.99" waitingTime="0.00" waitingCount="0" stopTime="0.00" timeLoss="5.80" rerouteNo="1" devices="tripinfo_bg_traffic.37 routing_bg_traffic.37" vType="car" speedFactor="1.18" vaporized=""/>
    <tripinfo id="bg_traffic.38" depart="380.00" departLane="e6_0" departPos="5.10" departSpeed="0.00" departDelay="0.00" arrival="425.00" arrivalLane="e2_0" arrivalPos="180.91" arrivalSpeed="14.80" duration="45.00" routeLength="568.99" waitingTime="0.00" waitingCount="0" stopTime="0.00" timeLoss="6.02" rerouteNo="1" devices="tripinfo_bg_traffic.38 routing_bg_traffic.38" vType="car" speedFactor="1.10" vaporized=""/>
    <tripinfo id="bg_traffic.39" depart="390.00" departLane="e6_0" departPos="5.10" departSpeed="0.00" departDelay="0.00" arrival="486.00" arrivalLane="e2_0" arrivalPos="180.91" arrivalSpeed="11.26" duration="96.00" routeLength="568.99" waitingTime="38.00" waitingCount="1" stopTime="0.00" timeLoss="49.28" rerouteNo="1" devices="tripinfo_bg_traffic.39 routing_bg_traffic.39" vType="car" speedFactor="0.90" vaporized=""/>
    <tripinfo id="bg_traffic.40" depart="400.00" departLane="e6_0" departPos="5.10" departSpeed="0.00" departDelay="0.00" arrival="487.00" arrivalLane="e2_0" arrivalPos="180.91" arrivalSpeed="12.65" duration="87.00" routeLength="568.99" waitingTime="32.00" waitingCount="1" stopTime="0.00" timeLoss="46.78" rerouteNo="1" devices="tripinfo_bg_traffic.40 routing_bg_traffic.40" vType="car" speedFactor="1.03" vaporized=""/>
    <tripinfo id="bg_traffic.41" depart="410.00" departLane="e6_0" departPos="5.10" departSpeed="0.00" departDelay="0.00" arrival="489.00" arrivalLane="e2_0" arrivalPos="180.91" arrivalSpeed="12.27" duration="79.00" routeLength="568.99" waitingTime="21.00" waitingCount="1" stopTime="0.00" timeLoss="35.22" rerouteNo="1" devices="tripinfo_bg_traffic.41 routing_bg_traffic.41" vType="car" speedFactor="0.96" vaporized=""/>
    <tripinfo id="bg_traffic.42" depart="420.00" departLane="e6_0" departPos="5.10" departSpeed="0.00" departDelay="0.00" arrival="491.00" arrivalLane="e2_0" arrivalPos="180.91" arrivalSpeed="14.60" duration="71.00" routeLength="568.99" waitingTime="15.00" waitingCount="1" stopTime="0.00" timeLoss="32.16" rerouteNo="1" devices="tripinfo_bg_traffic.42 routing_bg_traffic.42" vType="car" speedFactor="1.09" vaporized=""/>
    <tripinfo id="bg_traffic.43" depart="430.00" departLane="e6_0" departPos="5.10" departSpeed="0.00" departDelay="0.00" arrival="493.00" arrivalLane="e2_0" arrivalPos="180.91" arrivalSpeed="14.30" duration="63.00" routeLength="568.99" waitingTime="6.00" waitingCount="1" stopTime="0.00" timeLoss="22.20" rerouteNo="1" devices="tripinfo_bg_traffic.43 routing_bg_traffic.43" vType="car" speedFactor="1.04" vaporized=""/>
    <tripinfo id="bg_traffic.44" depart="440.00" departLane="e6_0" departPos="5.10" departSpeed="0.00" departDelay="0.00" arrival="494.00" arrivalLane="e2_0" arrivalPos="180.91" arrivalSpeed="14.35" duration="54.00" routeLength="568.99" waitingTime="0.00" waitingCount="0" stopTime="0.00" timeLoss="14.11" rerouteNo="1" devices="tripinfo_bg_traffic.44 routing_bg_traffic.44" vType="car" speedFactor="1.04" vaporized=""/>
    <tripinfo id="bg_traffic.45" depart="450.00" departLane="e6_0" departPos="5.10" departSpeed="0.00" departDelay="0.00" arrival="496.00" arrivalLane="e2_0" arrivalPos="180.91" arrivalSpeed="13.87" duration="46.00" routeLength="568.99" waitingTime="0.00" waitingCount="0" stopTime="0.00" timeLoss="7.48" rerouteNo="1" devices="tripinfo_bg_traffic.45 routing_bg_traffic.45" vType="car" speedFactor="1.09" vaporized=""/>
    <tripinfo id="bg_traffic.46" depart="460.00" departLane="e6_0" departPos="5.10" departSpeed="0.00" departDelay="0.00" arrival="508.00" arrivalLane="e2_0" arrivalPos="180.91" arrivalSpeed="13.75" duration="48.00" routeLength="568.99" waitingTime="0.00" waitingCount="0" stopTime="0.00" timeLoss="6.06" rerouteNo="1" devices="tripinfo_bg_traffic.46 routing_bg_traffic.46" vType="car" speedFactor="1.00" vaporized=""/>
    <tripinfo id="bg_traffic.47" depart="470.00" departLane="e6_0" departPos="5.10" departSpeed="0.00" departDelay="0.00" arrival="522.00" arrivalLane="e2_0" arrivalPos="180.91" arrivalSpeed="11.80" duration="52.00" routeLength="568.99" waitingTime="0.00" waitingCount="0" stopTime="0.00" timeLoss="5.14" rerouteNo="1" devices="tripinfo_bg_traffic.47 routing_bg_traffic.47" vType="car" speedFactor="0.90" vaporized=""/>
    <tripinfo id="bg_traffic.48" depart="480.00" departLane="e6_0" departPos="5.10" departSpeed="0.00" departDelay="0.00" arrival="577.00" arrivalLane="e2_0" arrivalPos="180.91" arrivalSpeed="11.53" duration="97.00" routeLength="568.99" waitingTime="37.00" waitingCount="1" stopTime="0.00" timeLoss="49.43" rerouteNo="1" devices="tripinfo_bg_traffic.48 routing_bg_traffic.48" vType="car" speedFactor="0.88" vaporized=""/>
    <tripinfo id="bg_traffic.49" depart="490.00" departLane="e6_0" departPos="5.10" departSpeed="0.00" departDelay="0.00" arrival="581.00" arrivalLane="e2_0" arrivalPos="180.91" arrivalSpeed="10.64" duration="91.00" routeLength="568.99" waitingTime="30.00" waitingCount="1" stopTime="0.00" timeLoss="41.63" rerouteNo="1" devices="tripinfo_bg_traffic.49 routing_bg_traffic.49" vType="car" speedFactor="0.85" vaporized=""/>
    <tripinfo id="bg_traffic.50" depart="500.00" departLane="e6_0" departPos="5.10" departSpeed="0.00" departDelay="0.00" arrival="583.00" arrivalLane="e2_0" arrivalPos="180.91" arrivalSpeed="11.67" duration="83.00" routeLength="568.99" waitingTime="22.00" waitingCount="1" stopTime="0.00" timeLoss="33.65" rerouteNo="1" devices="tripinfo_bg_traffic.50 routing_bg_traffic.50" vType="car" speedFactor="0.85" vaporized=""/>
    <tripinfo id="bg_traffic.51" depart="510.00" departLane="e6_0" departPos="5.10" departSpeed="0.00" departDelay="0.00" arrival="584.00" arrivalLane="e2_0" arrivalPos="180.91" arrivalSpeed="12.92" duration="74.00" routeLength="568.99" waitingTime="16.00" waitingCount="1" stopTime="0.00" timeLoss="38.34" rerouteNo="1" devices="tripinfo_bg_traffic.51 routing_bg_traffic.51" vType="car" speedFactor="1.17" vaporized=""/>
    <tripinfo id="bg_traffic.52" depart="520.00" departLane="e6_0" departPos="5.10" departSpeed="0.00" departDelay="0.00" arrival="586.00" arrivalLane="e2_0" arrivalPos="180.91" arrivalSpeed="13.03" duration="66.00" routeLength="568.99" waitingTime="7.00" waitingCount="1" stopTime="0.00" timeLoss="24.66" rerouteNo="1" devices="tripinfo_bg_traffic.52 routing_bg_traffic.52" vType="car" speedFactor="1.02" vaporized=""/>
    <tripinfo id="bg_traffic.53" depart="530.00" departLane="e6_0" departPos="5.10" departSpeed="0.00" departDelay="0.00" arrival="588.00" arrivalLane="e2_0" arrivalPos="180.91" arrivalSpeed="14.68" duration="58.00" routeLength="568.99" waitingTime="0.00" waitingCount="0" stopTime="0.00" timeLoss="19.26" rerouteNo="1" devices="tripinfo_bg_traffic.53 routing_bg_traffic.53" vType="car" speedFactor="1.10" vaporized=""/>
    <tripinfo id="bg_traffic.54" depart="540.00" departLane="e6_0" departPos="5.10" departSpeed="0.00" departDelay="0.00" arrival="590.00" arrivalLane="e2_0" arrivalPos="180.91" arrivalSpeed="13.40" duration="50.00" routeLength="568.99" waitingTime="0.00" waitingCount="0" stopTime="0.00" timeLoss="7.35" rerouteNo="1" devices="tripinfo_bg_traffic.54 routing_bg_traffic.54" vType="car" speedFactor="1.00" vaporized=""/>
    <tripinfo id="bg_traffic.55" depart="550.00" departLane="e6_0" departPos="5.10" departSpeed="0.00" departDelay="0.00" arrival="598.00" arrivalLane="e2_0" arrivalPos="180.91" arrivalSpeed="12.97" duration="48.00" routeLength="568.99" waitingTime="0.00" waitingCount="0" stopTime="0.00" timeLoss="5.14" rerouteNo="1" devices="tripinfo_bg_traffic.55 routing_bg_traffic.55" vType="car" speedFactor="1.00" vaporized=""/>
    <tripinfo id="bg_traffic.56" depart="560.00" departLane="e6_0" departPos="5.10" departSpeed="0.00" departDelay="0.00" arrival="612.00" arrivalLane="e2_0" arrivalPos="180.91" arrivalSpeed="12.27" duration="52.00" routeLength="568.99" waitingTime="0.00" waitingCount="0" stopTime="0.00" timeLoss="5.18" rerouteNo="1" devices="tripinfo_bg_traffic.56 routing_bg_traffic.56" vType="car" speedFactor="0.90" vaporized=""/>
    <tripinfo id="amb_8" depart="0.00" departLane="e11_rev_0" departPos="40.82" departSpeed="0.00" departDelay="0.00" arrival="623.00" arrivalLane="e4_0" arrivalPos="180.91" arrivalSpeed="13.89" duration="623.00" routeLength="500.98" waitingTime="581.00" waitingCount="3" stopTime="0.00" timeLoss="586.16" rerouteNo="1" devices="tripinfo_amb_8" vType="ambulance" speedFactor="1.00" vaporized=""/>
    <tripinfo id="bg_traffic.57" depart="570.00" departLane="e6_0" departPos="5.10" departSpeed="0.00" departDelay="0.00" arrival="659.00" arrivalLane="e2_0" arrivalPos="180.91" arrivalSpeed="14.67" duration="89.00" routeLength="568.99" waitingTime="42.00" waitingCount="1" stopTime="0.00" timeLoss="52.62" rerouteNo="1" devices="tripinfo_bg_traffic.57 routing_bg_traffic.57" vType="car" speedFactor="1.14" vaporized=""/>
    <tripinfo id="amb_5" depart="0.00" departLane="e3_0" departPos="106.73" departSpeed="0.00" departDelay="0.00" arrival="660.00" arrivalLane="e6_0" arrivalPos="180.91" arrivalSpeed="13.89" duration="660.00" routeLength="594.15" waitingTime="610.00" waitingCount="3" stopTime="0.00" timeLoss="617.31" rerouteNo="2" devices="tripinfo_amb_5" vType="ambulance" speedFactor="1.00" vaporized=""/>
    <tripinfo id="amb_3" depart="0.00" departLane="e1_0" departPos="8.23" departSpeed="0.00" departDelay="0.00" arrival="664.00" arrivalLane="e4_0" arrivalPos="180.91" arrivalSpeed="13.89" duration="664.00" routeLength="1094.98" waitingTime="573.00" waitingCount="4" stopTime="0.00" timeLoss="582.73" rerouteNo="2" devices="tripinfo_amb_3" vType="ambulance" speedFactor="1.00" vaporized=""/>
    <tripinfo id="bg_traffic.58" depart="580.00" departLane="e6_0" departPos="5.10" departSpeed="0.00" departDelay="0.00" arrival="664.00" arrivalLane="e2_0" arrivalPos="180.91" arrivalSpeed="13.05" duration="84.00" routeLength="568.99" waitingTime="32.00" waitingCount="1" stopTime="0.00" timeLoss="42.67" rerouteNo="1" devices="tripinfo_bg_traffic.58 routing_bg_traffic.58" vType="car" speedFactor="1.02" vaporized=""/>
    <tripinfo id="bg_traffic.59" depart="590.00" departLane="e6_0" departPos="5.10" departSpeed="0.00" departDelay="0.00" arrival="667.00" arrivalLane="e2_0" arrivalPos="180.91" arrivalSpeed="12.28" duration="77.00" routeLength="568.99" waitingTime="23.00" waitingCount="1" stopTime="0.00" timeLoss="33.62" rerouteNo="1" devices="tripinfo_bg_traffic.59 routing_bg_traffic.59" vType="car" speedFactor="0.97" vaporized=""/>
    <tripinfo id="bg_traffic.60" depart="600.00" departLane="e6_0" departPos="5.10" departSpeed="0.00" departDelay="0.00" arrival="669.00" arrivalLane="e2_0" arrivalPos="180.91" arrivalSpeed="13.93" duration="69.00" routeLength="568.99" waitingTime="17.00" waitingCount="1" stopTime="0.00" timeLoss="29.66" rerouteNo="1" devices="tripinfo_bg_traffic.60 routing_bg_traffic.60" vType="car" speedFactor="1.08" vaporized=""/>
    <tripinfo id="bg_traffic.61" depart="610.00" departLane="e6_0" departPos="5.10" departSpeed="0.00" departDelay="0.00" arrival="670.00" arrivalLane="e2_0" arrivalPos="180.91" arrivalSpeed="15.20" duration="60.00" routeLength="568.99" waitingTime="8.00" waitingCount="1" stopTime="0.00" timeLoss="22.50" rerouteNo="1" devices="tripinfo_bg_traffic.61 routing_bg_traffic.61" vType="car" speedFactor="1.12" vaporized=""/>
    <tripinfo id="bg_traffic.62" depart="620.00" departLane="e6_0" departPos="5.10" departSpeed="0.00" departDelay="0.00" arrival="673.00" arrivalLane="e2_0" arrivalPos="180.91" arrivalSpeed="13.15" duration="53.00" routeLength="568.99" waitingTime="0.00" waitingCount="0" stopTime="0.00" timeLoss="11.03" rerouteNo="1" devices="tripinfo_bg_traffic.62 routing_bg_traffic.62" vType="car" speedFactor="1.02" vaporized=""/>
    <tripinfo id="amb_2" depart="0.00" departLane="e10_0" departPos="117.50" departSpeed="0.00" departDelay="0.00" arrival="675.00" arrivalLane="e2_0" arrivalPos="180.91" arrivalSpeed="13.89" duration="675.00" routeLength="799.38" waitingTime="610.00" waitingCount="3" stopTime="0.00" timeLoss="617.94" rerouteNo="2" devices="tripinfo_amb_2" vType="ambulance" speedFactor="1.00" vaporized=""/>