<?xml version="1.0" encoding="UTF-8"?>

<!-- generated on 2025-10-09 22:53:05 by Eclipse SUMO GUI Version 1.24.0
<sumoConfiguration xmlns:xsi="http://www.w3.org/2001/XMLSchema-instance" xsi:noNamespaceSchemaLocation="http://sumo.dlr.de/xsd/sumoConfiguration.xsd">

    <input>
        <net-file value="hexagon.net.xml"/>
        <route-files value="hexagon.rou.xml"/>
        <additional-files value="hospitals.add.xml"/>
    </input>

    <output>
        <tripinfo-output value="tripinfo_after.xml"/>
    </output>

    <time>
        <begin value="0"/>
        <end value="1000"/>
    </time>

    <traci_server>
        <remote-port value="58477"/>
    </traci_server>

</sumoConfiguration>
-->

<tripinfos xmlns:xsi="http://www.w3.org/2001/XMLSchema-instance" xsi:noNamespaceSchemaLocation="http://sumo.dlr.de/xsd/tripinfo_file.xsd">
    <tripinfo id="amb_1" depart="5.00" departLane="e3_0" departPos="7.10" departSpeed="0.00" departDelay="0.00" arrival="34.00" arrivalLane="e4_0" arrivalPos="180.91" arrivalSpeed="13.89" duration="29.00" routeLength="370.40" waitingTime="0.00" waitingCount="0" stopTime="0.00" timeLoss="1.72" rerouteNo="1" devices="tripinfo_amb_1" vType="ambulance" speedFactor="1.00" vaporized=""/>
    <tripinfo id="amb_2" depart="25.00" departLane="e6_0" departPos="7.10" departSpeed="0.00" departDelay="0.00" arrival="82.00" arrivalLane="e9_0" arrivalPos="164.91" arrivalSpeed="6.82" duration="57.00" routeLength="561.00" waitingTime="6.00" waitingCount="2" stopTime="0.00" timeLoss="15.72" rerouteNo="1" devices="tripinfo_amb_2" vType="ambulance" speedFactor="1.00" vaporized=""/>
    <tripinfo id="car_4" depart="41.00" departLane="e8_0" departPos="5.10" departSpeed="0.00" departDelay="0.00" arrival="109.00" arrivalLane="e11_0" arrivalPos="164.91" arrivalSpeed="13.03" duration="68.00" routeLength="545.39" waitingTime="13.00" waitingCount="1" stopTime="0.00" timeLoss="27.81" rerouteNo="1" devices="tripinfo_car_4 routing_car_4" vType="car" speedFactor="1.01" vaporized=""/>
    <tripinfo id="car_8" depart="81.00" departLane="e2_0" departPos="5.10" departSpeed="0.00" departDelay="0.00" arrival="144.00" arrivalLane="e12_0" arrivalPos="164.91" arrivalSpeed="13.97" duration="63.00" routeLength="565.96" waitingTime="9.00" waitingCount="1" stopTime="0.00" timeLoss="23.17" rerouteNo="1" devices="tripinfo_car_8 routing_car_8" vType="car" speedFactor="1.05" vaporized=""/>
    <tripinfo id="car_9" depart="91.00" departLane="e6_rev_0" departPos="5.10" departSpeed="0.00" departDelay="0.00" arrival="154.00" arrivalLane="e7_rev_0" arrivalPos="164.91" arrivalSpeed="6.42" duration="63.00" routeLength="535.54" waitingTime="1.00" waitingCount="1" stopTime="0.00" timeLoss="16.75" rerouteNo="1" devices="tripinfo_car_9 routing_car_9" vType="car" speedFactor="0.89" vaporized=""/>
    <tripinfo id="car_10" depart="101.00" departLane="e4_0" departPos="5.10" departSpeed="0.00" departDelay="0.00" arrival="154.00" arrivalLane="e10_rev_0" arrivalPos="164.91" arrivalSpeed="12.36" duration="53.00" routeLength="543.10" waitingTime="0.00" waitingCount="0" stopTime="0.00" timeLoss="8.80" rerouteNo="1" devices="tripinfo_car_10 routing_car_10" vType="car" speedFactor="0.94" vaporized=""/>
    <tripinfo id="car_6" depart="61.00" departLane="e9_rev_0" departPos="5.10" departSpeed="0.00" departDelay="0.00" arrival="155.00" arrivalLane="e1_0" arrivalPos="180.91" arrivalSpeed="14.23" duration="94.00" routeLength="559.64" waitingTime="41.00" waitingCount="1" stopTime="0.00" timeLoss="53.69" rerouteNo="1" devices="tripinfo_car_6 routing_car_6" vType="car" speedFactor="1.03" vaporized=""/>
    <tripinfo id="car_5" depart="51.00" departLane="e3_rev_0" departPos="5.10" departSpeed="0.00" departDelay="0.00" arrival="157.00" arrivalLane="e6_0" arrivalPos="180.91" arrivalSpeed="14.12" duration="106.00" routeLength="763.67" waitingTime="35.00" waitingCount="1" stopTime="0.00" timeLoss="52.77" rerouteNo="1" devices="tripinfo_car_5 routing_car_5" vType="car" speedFactor="1.08" vaporized=""/>
    <tripinfo id="v_corrected_2" depart="35.00" departLane="e6_0" departPos="5.10" departSpeed="0.00" departDelay="0.00" arrival="188.00" arrivalLane="e2_0" arrivalPos="180.91" arrivalSpeed="12.71" duration="153.00" routeLength="1080.34" waitingTime="40.00" waitingCount="1" stopTime="0.00" timeLoss="64.23" rerouteNo="0" devices="tripinfo_v_corrected_2" vType="car" speedFactor="0.94" vaporized=""/>
    <tripinfo id="car_7" depart="71.00" departLane="e10_0" departPos="5.10" departSpeed="0.00" departDelay="0.00" arrival="193.00" arrivalLane="e5_rev_0" arrivalPos="180.91" arrivalSpeed="10.55" duration="122.00" routeLength="740.14" waitingTime="39.00" waitingCount="1" stopTime="0.00" timeLoss="54.70" rerouteNo="1" devices="tripinfo_car_7 routing_car_7" vType="car" speedFactor="0.83" vaporized=""/>
    <tripinfo id="car_16" depart="161.00" departLane="e7_rev_0" departPos="5.10" departSpeed="0.00" departDelay="0.00" arrival="193.00" arrivalLane="e10_0" arrivalPos="164.91" arrivalSpeed="12.58" duration="32.00" routeLength="375.81" waitingTime="0.00" waitingCount="0" stopTime="0.00" timeLoss="4.12" rerouteNo="0" devices="tripinfo_car_16 routing_car_16" vType="car" speedFactor="0.99" vaporized=""/>
    <tripinfo id="car_15" depart="151.00" departLane="e12_0" departPos="5.10" departSpeed="0.00" departDelay="0.00" arrival="196.00" arrivalLane="e4_rev_0" arrivalPos="180.91" arrivalSpeed="15.14" duration="45.00" routeLength="557.47" waitingTime="0.00" waitingCount="0" stopTime="0.00" timeLoss="7.54" rerouteNo="1" devices="tripinfo_car_15 routing_car_15" vType="car" speedFactor="1.12" vaporized=""/>
    <tripinfo id="car_11" depart="111.00" departLane="e11_rev_0" departPos="5.10" departSpeed="0.00" departDelay="0.00" arrival="221.00" arrivalLane="e2_0" arrivalPos="180.91" arrivalSpeed="11.51" duration="110.00" routeLength="565.96" waitingTime="48.00" waitingCount="1" stopTime="0.00" timeLoss="61.04" rerouteNo="1" devices="tripinfo_car_11 routing_car_11" vType="car" speedFactor="0.86" vaporized=""/>
    <tripinfo id="car_12" depart="121.00" departLane="e1_0" departPos="5.10" departSpeed="0.00" departDelay="0.00" arrival="223.00" arrivalLane="e5_0" arrivalPos="180.91" arrivalSpeed="15.14" duration="102.00" routeLength="756.11" waitingTime="28.00" waitingCount="2" stopTime="0.00" timeLoss="50.64" rerouteNo="1" devices="tripinfo_car_12 routing_car_12" vType="car" speedFactor="1.09" vaporized=""/>
    <tripinfo id="car_13" depart="131.00" departLane="e8_rev_0" departPos="5.10" departSpeed="0.00" departDelay="0.00" arrival="223.00" arrivalLane="e3_rev_0" arrivalPos="180.91" arrivalSpeed="13.14" duration="92.00" routeLength="570.56" waitingTime="34.00" waitingCount="2" stopTime="0.00" timeLoss="50.27" rerouteNo="1" devices="tripinfo_car_13 routing_car_13" vType="car" speedFactor="1.03" vaporized=""/>
    <tripinfo id="car_17" depart="171.00" departLane="e3_0" departPos="5.10" departSpeed="0.00" departDelay="0.00" arrival="224.00" arrivalLane="e11_rev_0" arrivalPos="164.91" arrivalSpeed="11.74" duration="53.00" routeLength="546.55" waitingTime="0.00" waitingCount="0" stopTime="0.00" timeLoss="8.14" rerouteNo="1" devices="tripinfo_car_17 routing_car_17" vType="car" speedFactor="0.93" vaporized=""/>
    <tripinfo id="car_14" depart="141.00" departLane="e9_0" departPos="5.10" departSpeed="0.00" departDelay="0.00" arrival="245.00" arrivalLane="e6_0" arrivalPos="180.91" arrivalSpeed="14.29" duration="104.00" routeLength="735.54" waitingTime="34.00" waitingCount="1" stopTime="0.00" timeLoss="51.62" rerouteNo="1" devices="tripinfo_car_14 routing_car_14" vType="car" speedFactor="1.05" vaporized=""/>
    <tripinfo id="car_18" depart="181.00" departLane="e5_rev_0" departPos="5.10" departSpeed="0.00" departDelay="0.00" arrival="255.00" arrivalLane="e1_0" arrivalPos="180.91" arrivalSpeed="11.06" duration="74.00" routeLength="754.57" waitingTime="0.00" waitingCount="0" stopTime="0.00" timeLoss="11.01" rerouteNo="1" devices="tripinfo_car_18 routing_car_18" vType="car" speedFactor="0.88" vaporized=""/>
    <tripinfo id="car_21" depart="213.00" departLane="e6_0" departPos="5.10" departSpeed="0.00" departDelay="2.00" arrival="270.00" arrivalLane="e9_rev_0" arrivalPos="164.91" arrivalSpeed="16.06" duration="57.00" routeLength="743.14" waitingTime="0.00" waitingCount="0" stopTime="0.00" timeLoss="9.15" rerouteNo="1" devices="tripinfo_car_21 routing_car_21" vType="car" speedFactor="1.16" vaporized=""/>
    <tripinfo id="car_20" depart="201.00" departLane="e10_rev_0" departPos="5.10" departSpeed="0.00" departDelay="0.00" arrival="275.00" arrivalLane="e4_0" arrivalPos="180.91" arrivalSpeed="11.88" duration="74.00" routeLength="519.54" waitingTime="19.00" waitingCount="1" stopTime="0.00" timeLoss="31.93" rerouteNo="1" devices="tripinfo_car_20 routing_car_20" vType="car" speedFactor="0.94" vaporized=""/>
    <tripinfo id="car_23" depart="231.00" departLane="e4_rev_0" departPos="5.10" departSpeed="0.00" departDelay="0.00" arrival="280.00" arrivalLane="e7_0" arrivalPos="164.91" arrivalSpeed="13.07" duration="49.00" routeLength="573.52" waitingTime="0.00" waitingCount="0" stopTime="0.00" timeLoss="6.07" rerouteNo="1" devices="tripinfo_car_23 routing_car_23" vType="car" speedFactor="1.01" vaporized=""/>
    <tripinfo id="car_19" depart="191.00" departLane="e2_rev_0" departPos="5.10" departSpeed="0.00" departDelay="0.00" arrival="294.00" arrivalLane="e8_0" arrivalPos="164.91" arrivalSpeed="12.56" duration="103.00" routeLength="527.11" waitingTime="47.00" waitingCount="2" stopTime="0.00" timeLoss="60.42" rerouteNo="1" devices="tripinfo_car_19 routing_car_19" vType="car" speedFactor="0.94" vaporized=""/>
    <tripinfo id="car_22" depart="221.00" departLane="e11_0" departPos="5.10" departSpeed="0.00" departDelay="0.00" arrival="307.00" arrivalLane="e1_rev_0" arrivalPos="180.91" arrivalSpeed="12.88" duration="86.00" routeLength="743.10" waitingTime="14.00" waitingCount="1" stopTime="0.00" timeLoss="31.32" rerouteNo="1" devices="tripinfo_car_22 routing_car_22" vType="car" speedFactor="1.02" vaporized=""/>
    <tripinfo id="car_27" depart="271.00" departLane="e9_0" departPos="5.10" departSpeed="0.00" departDelay="0.00" arrival="308.00" arrivalLane="e2_rev_0" arrivalPos="180.91" arrivalSpeed="11.71" duration="37.00" routeLength="357.52" waitingTime="0.00" waitingCount="0" stopTime="0.00" timeLoss="5.42" rerouteNo="0" devices="tripinfo_car_27 routing_car_27" vType="car" speedFactor="0.87" vaporized=""/>
    <tripinfo id="v_corrected" depart="30.00" departLane="e3_0" departPos="5.10" departSpeed="0.00" departDelay="0.00" arrival="317.00" arrivalLane="e11_0" arrivalPos="164.91" arrivalSpeed="14.10" duration="287.00" routeLength="2604.47" waitingTime="49.00" waitingCount="2" stopTime="0.00" timeLoss="99.11" rerouteNo="0" devices="tripinfo_v_corrected" vType="car" speedFactor="1.06" vaporized=""/>
    <tripinfo id="car_25" depart="251.00" departLane="e7_0" departPos="5.10" departSpeed="0.00" departDelay="0.00" arrival="322.00" arrivalLane="e3_0" arrivalPos="180.91" arrivalSpeed="11.89" duration="71.00" routeLength="743.14" waitingTime="0.00" waitingCount="0" stopTime="0.00" timeLoss="8.69" rerouteNo="1" devices="tripinfo_car_25 routing_car_25" vType="car" speedFactor="0.89" vaporized=""/>
    <tripinfo id="car_26" depart="261.00" departLane="e8_0" departPos="5.10" departSpeed="0.00" departDelay="0.00" arrival="338.00" arrivalLane="e5_rev_0" arrivalPos="180.91" arrivalSpeed="10.52" duration="77.00" routeLength="757.42" waitingTime="0.00" waitingCount="0" stopTime="0.00" timeLoss="8.53" rerouteNo="1" devices="tripinfo_car_26 routing_car_26" vType="car" speedFactor="0.83" vaporized=""/>
    <tripinfo id="car_24" depart="243.00" departLane="e1_rev_0" departPos="5.10" departSpeed="0.00" departDelay="2.00" arrival="348.00" arrivalLane="e12_0" arrivalPos="164.91" arrivalSpeed="13.33" duration="105.00" routeLength="553.50" waitingTime="51.00" waitingCount="1" stopTime="0.00" timeLoss="61.42" rerouteNo="1" devices="tripinfo_car_24 routing_car_24" vType="car" speedFactor="0.97" vaporized=""/>
    <tripinfo id="car_28" depart="281.00" departLane="e10_0" departPos="5.10" departSpeed="0.00" departDelay="0.00" arrival="369.00" arrivalLane="e6_rev_0" arrivalPos="180.91" arrivalSpeed="12.63" duration="88.00" routeLength="743.10" waitingTime="11.00" waitingCount="1" stopTime="0.00" timeLoss="27.30" rerouteNo="1" devices="tripinfo_car_28 routing_car_28" vType="car" speedFactor="0.92" vaporized=""/>
    <tripinfo id="car_29" depart="291.00" departLane="e11_0" departPos="5.10" departSpeed="0.00" departDelay="0.00" arrival="399.00" arrivalLane="e1_rev_0" arrivalPos="180.91" arrivalSpeed="12.97" duration="108.00" routeLength="743.10" waitingTime="33.00" waitingCount="1" stopTime="0.00" timeLoss="49.22" rerouteNo="1" devices="tripinfo_car_29 routing_car_29" vType="car" speedFactor="0.95" vaporized=""/>
</tripinfos>
