<?xml version="1.0" encoding="UTF-8"?>

<!-- generated on 2025-10-19 22:08:56 by Eclipse SUMO sumo Version 1.24.0
<sumoConfiguration xmlns:xsi="http://www.w3.org/2001/XMLSchema-instance" xsi:noNamespaceSchemaLocation="http://sumo.dlr.de/xsd/sumoConfiguration.xsd">

    <input>
        <net-file value="hexagon.net.xml"/>
        <route-files value="hexagon.rou.xml"/>
        <additional-files value="hospitals.add.xml ,patients.add.xml"/>
    </input>

    <output>
        <tripinfo-output value="tripinfo_before.xml"/>
    </output>

    <time>
        <begin value="0"/>
        <end value="1000"/>
    </time>

</sumoConfiguration>
-->

<tripinfos xmlns:xsi="http://www.w3.org/2001/XMLSchema-instance" xsi:noNamespaceSchemaLocation="http://sumo.dlr.de/xsd/tripinfo_file.xsd">
    <tripinfo id="amb_1" depart="0.00" departLane="e5_0" departPos="161.19" departSpeed="0.00" departDelay="0.00" arrival="3.00" arrivalLane="e5_0" arrivalPos="180.91" arrivalSpeed="12.00" duration="3.00" routeLength="19.72" waitingTime="0.00" waitingCount="0" stopTime="0.00" timeLoss="1.27" rerouteNo="0" devices="tripinfo_amb_1" vType="ambulance" speedFactor="1.00" vaporized=""/>
    <tripinfo id="amb_2" depart="0.00" departLane="e10_0" departPos="117.50" departSpeed="0.00" departDelay="0.00" arrival="5.00" arrivalLane="e10_0" arrivalPos="164.91" arrivalSpeed="13.89" duration="5.00" routeLength="47.41" waitingTime="0.00" waitingCount="0" stopTime="0.00" timeLoss="1.27" rerouteNo="0" devices="tripinfo_amb_2" vType="ambulance" speedFactor="1.00" vaporized=""/>
    <tripinfo id="amb_7" depart="0.00" departLane="e7_rev_0" departPos="122.57" departSpeed="0.00" departDelay="0.00" arrival="5.00" arrivalLane="e7_rev_0" arrivalPos="164.91" arrivalSpeed="13.89" duration="5.00" routeLength="42.34" waitingTime="0.00" waitingCount="0" stopTime="0.00" timeLoss="1.27" rerouteNo="0" devices="tripinfo_amb_7" vType="ambulance" speedFactor="1.00" vaporized=""/>
    <tripinfo id="amb_5" depart="0.00" departLane="e3_0" departPos="106.73" departSpeed="0.00" departDelay="0.00" arrival="7.00" arrivalLane="e3_0" arrivalPos="180.91" arrivalSpeed="13.89" duration="7.00" routeLength="74.18" waitingTime="0.00" waitingCount="0" stopTime="0.00" timeLoss="1.27" rerouteNo="0" devices="tripinfo_amb_5" vType="ambulance" speedFactor="1.00" vaporized=""/>
    <tripinfo id="amb_4" depart="0.00" departLane="e2_0" departPos="88.91" departSpeed="0.00" departDelay="0.00" arrival="8.00" arrivalLane="e2_0" arrivalPos="180.91" arrivalSpeed="13.89" duration="8.00" routeLength="92.00" waitingTime="0.00" waitingCount="0" stopTime="0.00" timeLoss="1.27" rerouteNo="0" devices="tripinfo_amb_4" vType="ambulance" speedFactor="1.00" vaporized=""/>
    <tripinfo id="amb_8" depart="0.00" departLane="e11_rev_0" departPos="40.82" departSpeed="0.00" departDelay="0.00" arrival="11.00" arrivalLane="e11_rev_0" arrivalPos="164.91" arrivalSpeed="13.89" duration="11.00" routeLength="124.09" waitingTime="0.00" waitingCount="0" stopTime="0.00" timeLoss="1.27" rerouteNo="0" devices="tripinfo_amb_8" vType="ambulance" speedFactor="1.00" vaporized=""/>
    <tripinfo id="amb_3" depart="0.00" departLane="e1_0" departPos="8.23" departSpeed="0.00" departDelay="0.00" arrival="14.00" arrivalLane="e1_0" arrivalPos="180.91" arrivalSpeed="13.89" duration="14.00" routeLength="172.68" waitingTime="0.00" waitingCount="0" stopTime="0.00" timeLoss="1.27" rerouteNo="0" devices="tripinfo_amb_3" vType="ambulance" speedFactor="1.00" vaporized=""/>
    <tripinfo id="amb_6" depart="0.00" departLane="e4_0" departPos="7.89" departSpeed="0.00" departDelay="0.00" arrival="14.00" arrivalLane="e4_0" arrivalPos="180.91" arrivalSpeed="13.89" duration="14.00" routeLength="173.02" waitingTime="0.00" waitingCount="0" stopTime="0.00" timeLoss="1.27" rerouteNo="0" devices="tripinfo_amb_6" vType="ambulance" speedFactor="1.00" vaporized=""/>
    <tripinfo id="bg_traffic.0" depart="0.00" departLane="e6_0" departPos="5.10" departSpeed="0.00" departDelay="0.00" arrival="45.00" arrivalLane="e2_0" arrivalPos="180.91" arrivalSpeed="13.54" duration="45.00" routeLength="568.99" waitingTime="0.00" waitingCount="0" stopTime="0.00" timeLoss="5.92" rerouteNo="1" devices="tripinfo_bg_traffic.0 routing_bg_traffic.0" vType="car" speedFactor="1.06" vaporized=""/>
    <tripinfo id="bg_traffic.1" depart="10.00" departLane="e6_0" departPos="5.10" departSpeed="0.00" departDelay="0.00" arrival="61.00" arrivalLane="e2_0" arrivalPos="180.91" arrivalSpeed="12.24" duration="51.00" routeLength="568.99" waitingTime="0.00" waitingCount="0" stopTime="0.00" timeLoss="6.00" rerouteNo="1" devices="tripinfo_bg_traffic.1 routing_bg_traffic.1" vType="car" speedFactor="0.94" vaporized=""/>
    <tripinfo id="bg_traffic.2" depart="20.00" departLane="e6_0" departPos="5.10" departSpeed="0.00" departDelay="0.00" arrival="68.00" arrivalLane="e2_0" arrivalPos="180.91" arrivalSpeed="13.10" duration="48.00" routeLength="568.99" waitingTime="0.00" waitingCount="0" stopTime="0.00" timeLoss="6.29" rerouteNo="1" devices="tripinfo_bg_traffic.2 routing_bg_traffic.2" vType="car" speedFactor="1.01" vaporized=""/>
    <tripinfo id="bg_traffic.3" depart="30.00" departLane="e6_0" departPos="5.10" departSpeed="0.00" departDelay="0.00" arrival="75.00" arrivalLane="e2_0" arrivalPos="180.91" arrivalSpeed="13.99" duration="45.00" routeLength="568.99" waitingTime="0.00" waitingCount="0" stopTime="0.00" timeLoss="5.62" rerouteNo="1" devices="tripinfo_bg_traffic.3 routing_bg_traffic.3" vType="car" speedFactor="1.08" vaporized=""/>
    <tripinfo id="bg_traffic.4" depart="40.00" departLane="e6_0" departPos="5.10" departSpeed="0.00" departDelay="0.00" arrival="87.00" arrivalLane="e2_0" arrivalPos="180.91" arrivalSpeed="13.21" duration="47.00" routeLength="568.99" waitingTime="0.00" waitingCount="0" stopTime="0.00" timeLoss="5.91" rerouteNo="1" devices="tripinfo_bg_traffic.4 routing_bg_traffic.4" vType="car" speedFactor="1.03" vaporized=""/>
    <tripinfo id="bg_traffic.5" depart="50.00" departLane="e6_0" departPos="5.10" departSpeed="0.00" departDelay="0.00" arrival="107.00" arrivalLane="e2_0" arrivalPos="180.91" arrivalSpeed="10.85" duration="57.00" routeLength="568.99" waitingTime="0.00" waitingCount="0" stopTime="0.00" timeLoss="6.75" rerouteNo="1" devices="tripinfo_bg_traffic.5 routing_bg_traffic.5" vType="car" speedFactor="0.83" vaporized=""/>
    <tripinfo id="bg_traffic.6" depart="60.00" departLane="e6_0" departPos="5.10" departSpeed="0.00" departDelay="0.00" arrival="109.00" arrivalLane="e2_0" arrivalPos="180.91" arrivalSpeed="13.36" duration="49.00" routeLength="568.99" waitingTime="0.00" waitingCount="0" stopTime="0.00" timeLoss="8.69" rerouteNo="1" devices="tripinfo_bg_traffic.6 routing_bg_traffic.6" vType="car" speedFactor="1.05" vaporized=""/>
    <tripinfo id="bg_traffic.7" depart="70.00" departLane="e6_0" departPos="5.10" departSpeed="0.00" departDelay="0.00" arrival="124.00" arrivalLane="e2_0" arrivalPos="180.91" arrivalSpeed="12.17" duration="54.00" routeLength="568.99" waitingTime="0.00" waitingCount="0" stopTime="0.00" timeLoss="6.13" rerouteNo="1" devices="tripinfo_bg_traffic.7 routing_bg_traffic.7" vType="car" speedFactor="0.89" vaporized=""/>
    <tripinfo id="bg_traffic.8" depart="80.00" departLane="e6_0" departPos="5.10" departSpeed="0.00" departDelay="0.00" arrival="131.00" arrivalLane="e2_0" arrivalPos="180.91" arrivalSpeed="12.18" duration="51.00" routeLength="568.99" waitingTime="0.00" waitingCount="0" stopTime="0.00" timeLoss="6.20" rerouteNo="1" devices="tripinfo_bg_traffic.8 routing_bg_traffic.8" vType="car" speedFactor="0.94" vaporized=""/>
    <tripinfo id="bg_traffic.9" depart="90.00" departLane="e6_0" departPos="5.10" departSpeed="0.00" departDelay="0.00" arrival="145.00" arrivalLane="e2_0" arrivalPos="180.91" arrivalSpeed="11.68" duration="55.00" routeLength="568.99" waitingTime="0.00" waitingCount="0" stopTime="0.00" timeLoss="6.09" rerouteNo="1" devices="tripinfo_bg_traffic.9 routing_bg_traffic.9" vType="car" speedFactor="0.86" vaporized=""/>
    <tripinfo id="bg_traffic.10" depart="100.00" departLane="e6_0" departPos="5.10" departSpeed="0.00" departDelay="0.00" arrival="147.00" arrivalLane="e2_0" arrivalPos="180.91" arrivalSpeed="13.86" duration="47.00" routeLength="568.99" waitingTime="0.00" waitingCount="0" stopTime="0.00" timeLoss="8.21" rerouteNo="1" devices="tripinfo_bg_traffic.10 routing_bg_traffic.10" vType="car" speedFactor="1.09" vaporized=""/>
    <tripinfo id="bg_traffic.11" depart="110.00" departLane="e6_0" departPos="5.10" departSpeed="0.00" departDelay="0.00" arrival="157.00" arrivalLane="e2_0" arrivalPos="180.91" arrivalSpeed="13.97" duration="47.00" routeLength="568.99" waitingTime="0.00" waitingCount="0" stopTime="0.00" timeLoss="5.50" rerouteNo="1" devices="tripinfo_bg_traffic.11 routing_bg_traffic.11" vType="car" speedFactor="1.03" vaporized=""/>
    <tripinfo id="bg_traffic.12" depart="120.00" departLane="e6_0" departPos="5.10" departSpeed="0.00" departDelay="0.00" arrival="166.00" arrivalLane="e2_0" arrivalPos="180.91" arrivalSpeed="13.51" duration="46.00" routeLength="568.99" waitingTime="0.00" waitingCount="0" stopTime="0.00" timeLoss="6.19" rerouteNo="1" devices="tripinfo_bg_traffic.12 routing_bg_traffic.12" vType="car" speedFactor="1.05" vaporized=""/>
    <tripinfo id="bg_traffic.13" depart="130.00" departLane="e6_0" departPos="5.10" departSpeed="0.00" departDelay="0.00" arrival="173.00" arrivalLane="e2_0" arrivalPos="180.91" arrivalSpeed="14.93" duration="43.00" routeLength="568.99" waitingTime="0.00" waitingCount="0" stopTime="0.00" timeLoss="5.77" rerouteNo="1" devices="tripinfo_bg_traffic.13 routing_bg_traffic.13" vType="car" speedFactor="1.12" vaporized=""/>
    <tripinfo id="bg_traffic.14" depart="140.00" departLane="e6_0" departPos="5.10" departSpeed="0.00" departDelay="0.00" arrival="188.00" arrivalLane="e2_0" arrivalPos="180.91" arrivalSpeed="13.22" duration="48.00" routeLength="568.99" waitingTime="0.00" waitingCount="0" stopTime="0.00" timeLoss="5.51" rerouteNo="1" devices="tripinfo_bg_traffic.14 routing_bg_traffic.14" vType="car" speedFactor="0.99" vaporized=""/>
    <tripinfo id="bg_traffic.15" depart="150.00" departLane="e6_0" departPos="5.10" departSpeed="0.00" departDelay="0.00" arrival="201.00" arrivalLane="e2_0" arrivalPos="180.91" arrivalSpeed="11.87" duration="51.00" routeLength="568.99" waitingTime="0.00" waitingCount="0" stopTime="0.00" timeLoss="5.95" rerouteNo="1" devices="tripinfo_bg_traffic.15 routing_bg_traffic.15" vType="car" speedFactor="0.93" vaporized=""/>
    <tripinfo id="bg_traffic.16" depart="160.00" departLane="e6_0" departPos="5.10" departSpeed="0.00" departDelay="0.00" arrival="213.00" arrivalLane="e2_0" arrivalPos="180.91" arrivalSpeed="10.96" duration="53.00" routeLength="568.99" waitingTime="0.00" waitingCount="0" stopTime="0.00" timeLoss="5.45" rerouteNo="1" devices="tripinfo_bg_traffic.16 routing_bg_traffic.16" vType="car" speedFactor="0.88" vaporized=""/>
    <tripinfo id="bg_traffic.17" depart="170.00" departLane="e6_0" departPos="5.10" departSpeed="0.00" departDelay="0.00" arrival="221.00" arrivalLane="e2_0" arrivalPos="180.91" arrivalSpeed="12.05" duration="51.00" routeLength="568.99" waitingTime="0.00" waitingCount="0" stopTime="0.00" timeLoss="6.04" rerouteNo="1" devices="tripinfo_bg_traffic.17 routing_bg_traffic.17" vType="car" speedFactor="0.94" vaporized=""/>
    <tripinfo id="bg_traffic.18" depart="180.00" departLane="e6_0" departPos="5.10" departSpeed="0.00" departDelay="0.00" arrival="231.00" arrivalLane="e2_0" arrivalPos="180.91" arrivalSpeed="12.63" duration="51.00" routeLength="568.99" waitingTime="0.00" waitingCount="0" stopTime="0.00" timeLoss="5.67" rerouteNo="1" devices="tripinfo_bg_traffic.18 routing_bg_traffic.18" vType="car" speedFactor="0.94" vaporized=""/>
    <tripinfo id="bg_traffic.19" depart="190.00" departLane="e6_0" departPos="5.10" departSpeed="0.00" departDelay="0.00" arrival="233.00" arrivalLane="e2_0" arrivalPos="180.91" arrivalSpeed="15.89" duration="43.00" routeLength="568.99" waitingTime="0.00" waitingCount="0" stopTime="0.00" timeLoss="6.22" rerouteNo="1" devices="tripinfo_bg_traffic.19 routing_bg_traffic.19" vType="car" speedFactor="1.16" vaporized=""/>
    <tripinfo id="bg_traffic.20" depart="200.00" departLane="e6_0" departPos="5.10" departSpeed="0.00" departDelay="0.00" arrival="247.00" arrivalLane="e2_0" arrivalPos="180.91" arrivalSpeed="13.14" duration="47.00" routeLength="568.99" waitingTime="0.00" waitingCount="0" stopTime="0.00" timeLoss="5.71" rerouteNo="1" devices="tripinfo_bg_traffic.20 routing_bg_traffic.20" vType="car" speedFactor="1.02" vaporized=""/>
    <tripinfo id="bg_traffic.21" depart="210.00" departLane="e6_0" departPos="5.10" departSpeed="0.00" departDelay="0.00" arrival="258.00" arrivalLane="e2_0" arrivalPos="180.91" arrivalSpeed="13.06" duration="48.00" routeLength="568.99" waitingTime="0.00" waitingCount="0" stopTime="0.00" timeLoss="5.91" rerouteNo="1" devices="tripinfo_bg_traffic.21 routing_bg_traffic.21" vType="car" speedFactor="1.01" vaporized=""/>
    <tripinfo id="bg_traffic.22" depart="220.00" departLane="e6_0" departPos="5.10" departSpeed="0.00" departDelay="0.00" arrival="269.00" arrivalLane="e2_0" arrivalPos="180.91" arrivalSpeed="13.44" duration="49.00" routeLength="568.99" waitingTime="0.00" waitingCount="0" stopTime="0.00" timeLoss="6.28" rerouteNo="1" devices="tripinfo_bg_traffic.22 routing_bg_traffic.22" vType="car" speedFactor="0.97" vaporized=""/>
    <tripinfo id="bg_traffic.23" depart="230.00" departLane="e6_0" departPos="5.10" departSpeed="0.00" departDelay="0.00" arrival="283.00" arrivalLane="e2_0" arrivalPos="180.91" arrivalSpeed="11.93" duration="53.00" routeLength="568.99" waitingTime="0.00" waitingCount="0" stopTime="0.00" timeLoss="6.27" rerouteNo="1" devices="tripinfo_bg_traffic.23 routing_bg_traffic.23" vType="car" speedFactor="0.89" vaporized=""/>
    <tripinfo id="bg_traffic.24" depart="240.00" departLane="e6_0" departPos="5.10" departSpeed="0.00" departDelay="0.00" arrival="297.00" arrivalLane="e2_0" arrivalPos="180.91" arrivalSpeed="10.38" duration="57.00" routeLength="568.99" waitingTime="0.00" waitingCount="0" stopTime="0.00" timeLoss="6.49" rerouteNo="1" devices="tripinfo_bg_traffic.24 routing_bg_traffic.24" vType="car" speedFactor="0.83" vaporized=""/>
    <tripinfo id="bg_traffic.25" depart="250.00" departLane="e6_0" departPos="5.10" departSpeed="0.00" departDelay="0.00" arrival="305.00" arrivalLane="e2_0" arrivalPos="180.91" arrivalSpeed="11.70" duration="55.00" routeLength="568.99" waitingTime="0.00" waitingCount="0" stopTime="0.00" timeLoss="6.38" rerouteNo="1" devices="tripinfo_bg_traffic.25 routing_bg_traffic.25" vType="car" speedFactor="0.87" vaporized=""/>
    <tripinfo id="bg_traffic.26" depart="260.00" departLane="e6_0" departPos="5.10" departSpeed="0.00" departDelay="0.00" arrival="312.00" arrivalLane="e2_0" arrivalPos="180.91" arrivalSpeed="12.41" duration="52.00" routeLength="568.99" waitingTime="0.00" waitingCount="0" stopTime="0.00" timeLoss="6.15" rerouteNo="1" devices="tripinfo_bg_traffic.26 routing_bg_traffic.26" vType="car" speedFactor="0.92" vaporized=""/>
    <tripinfo id="bg_traffic.27" depart="270.00" departLane="e6_0" departPos="5.10" departSpeed="0.00" departDelay="0.00" arrival="321.00" arrivalLane="e2_0" arrivalPos="180.91" arrivalSpeed="12.81" duration="51.00" routeLength="568.99" waitingTime="0.00" waitingCount="0" stopTime="0.00" timeLoss="6.28" rerouteNo="1" devices="tripinfo_bg_traffic.27 routing_bg_traffic.27" vType="car" speedFactor="0.95" vaporized=""/>
    <tripinfo id="bg_traffic.28" depart="280.00" departLane="e6_0" departPos="5.10" departSpeed="0.00" departDelay="0.00" arrival="323.00" arrivalLane="e2_0" arrivalPos="180.91" arrivalSpeed="14.92" duration="43.00" routeLength="568.99" waitingTime="0.00" waitingCount="0" stopTime="0.00" timeLoss="6.23" rerouteNo="1" devices="tripinfo_bg_traffic.28 routing_bg_traffic.28" vType="car" speedFactor="1.13" vaporized=""/>
    <tripinfo id="bg_traffic.29" depart="290.00" departLane="e6_0" departPos="5.10" departSpeed="0.00" departDelay="0.00" arrival="341.00" arrivalLane="e2_0" arrivalPos="180.91" arrivalSpeed="11.81" duration="51.00" routeLength="568.99" waitingTime="0.00" waitingCount="0" stopTime="0.00" timeLoss="6.08" rerouteNo="1" devices="tripinfo_bg_traffic.29 routing_bg_traffic.29" vType="car" speedFactor="0.93" vaporized=""/>
    <tripinfo id="bg_traffic.30" depart="300.00" departLane="e6_0" departPos="5.10" departSpeed="0.00" departDelay="0.00" arrival="343.00" arrivalLane="e2_0" arrivalPos="180.91" arrivalSpeed="15.18" duration="43.00" routeLength="568.99" waitingTime="0.00" waitingCount="0" stopTime="0.00" timeLoss="7.20" rerouteNo="1" devices="tripinfo_bg_traffic.30 routing_bg_traffic.30" vType="car" speedFactor="1.18" vaporized=""/>
    <tripinfo id="bg_traffic.31" depart="310.00" departLane="e6_0" departPos="5.10" departSpeed="0.00" departDelay="0.00" arrival="352.00" arrivalLane="e2_0" arrivalPos="180.91" arrivalSpeed="15.90" duration="42.00" routeLength="568.99" waitingTime="0.00" waitingCount="0" stopTime="0.00" timeLoss="5.07" rerouteNo="1" devices="tripinfo_bg_traffic.31 routing_bg_traffic.31" vType="car" speedFactor="1.15" vaporized=""/>
    <tripinfo id="bg_traffic.32" depart="320.00" departLane="e6_0" departPos="5.10" departSpeed="0.00" departDelay="0.00" arrival="368.00" arrivalLane="e2_0" arrivalPos="180.91" arrivalSpeed="13.59" duration="48.00" routeLength="568.99" waitingTime="0.00" waitingCount="0" stopTime="0.00" timeLoss="5.78" rerouteNo="1" devices="tripinfo_bg_traffic.32 routing_bg_traffic.32" vType="car" speedFactor="1.01" vaporized=""/>
    <tripinfo id="bg_traffic.33" depart="330.00" departLane="e6_0" departPos="5.10" departSpeed="0.00" departDelay="0.00" arrival="372.00" arrivalLane="e2_0" arrivalPos="180.91" arrivalSpeed="16.01" duration="42.00" routeLength="568.99" waitingTime="0.00" waitingCount="0" stopTime="0.00" timeLoss="5.74" rerouteNo="1" devices="tripinfo_bg_traffic.33 routing_bg_traffic.33" vType="car" speedFactor="1.17" vaporized=""/>
    <tripinfo id="bg_traffic.34" depart="340.00" departLane="e6_0" departPos="5.10" departSpeed="0.00" departDelay="0.00" arrival="388.00" arrivalLane="e2_0" arrivalPos="180.91" arrivalSpeed="13.48" duration="48.00" routeLength="568.99" waitingTime="0.00" waitingCount="0" stopTime="0.00" timeLoss="5.59" rerouteNo="1" devices="tripinfo_bg_traffic.34 routing_bg_traffic.34" vType="car" speedFactor="0.99" vaporized=""/>
    <tripinfo id="bg_traffic.35" depart="350.00" departLane="e6_0" departPos="5.10" departSpeed="0.00" departDelay="0.00" arrival="397.00" arrivalLane="e2_0" arrivalPos="180.91" arrivalSpeed="13.68" duration="47.00" routeLength="568.99" waitingTime="0.00" waitingCount="0" stopTime="0.00" timeLoss="5.79" rerouteNo="1" devices="tripinfo_bg_traffic.35 routing_bg_traffic.35" vType="car" speedFactor="1.02" vaporized=""/>
    <tripinfo id="bg_traffic.36" depart="360.00" departLane="e6_0" departPos="5.10" departSpeed="0.00" departDelay="0.00" arrival="409.00" arrivalLane="e2_0" arrivalPos="180.91" arrivalSpeed="12.35" duration="49.00" routeLength="568.99" waitingTime="0.00" waitingCount="0" stopTime="0.00" timeLoss="5.91" rerouteNo="1" devices="tripinfo_bg_traffic.36 routing_bg_traffic.36" vType="car" speedFactor="0.97" vaporized=""/>
    <tripinfo id="bg_traffic.37" depart="370.00" departLane="e6_0" departPos="5.10" departSpeed="0.00" departDelay="0.00" arrival="412.00" arrivalLane="e2_0" arrivalPos="180.91" arrivalSpeed="15.39" duration="42.00" routeLength="568.99" waitingTime="0.00" waitingCount="0" stopTime="0.00" timeLoss="6.15" rerouteNo="1" devices="tripinfo_bg_traffic.37 routing_bg_traffic.37" vType="car" speedFactor="1.18" vaporized=""/>
    <tripinfo id="bg_traffic.38" depart="380.00" departLane="e6_0" departPos="5.10" departSpeed="0.00" departDelay="0.00" arrival="424.00" arrivalLane="e2_0" arrivalPos="180.91" arrivalSpeed="14.25" duration="44.00" routeLength="568.99" waitingTime="0.00" waitingCount="0" stopTime="0.00" timeLoss="5.59" rerouteNo="1" devices="tripinfo_bg_traffic.38 routing_bg_traffic.38" vType="car" speedFactor="1.10" vaporized=""/>
    <tripinfo id="bg_traffic.39" depart="390.00" departLane="e6_0" departPos="5.10" departSpeed="0.00" departDelay="0.00" arrival="443.00" arrivalLane="e2_0" arrivalPos="180.91" arrivalSpeed="12.22" duration="53.00" routeLength="568.99" waitingTime="0.00" waitingCount="0" stopTime="0.00" timeLoss="6.24" rerouteNo="1" devices="tripinfo_bg_traffic.39 routing_bg_traffic.39" vType="car" speedFactor="0.90" vaporized=""/>
    <tripinfo id="bg_traffic.40" depart="400.00" departLane="e6_0" departPos="5.10" departSpeed="0.00" departDelay="0.00" arrival="447.00" arrivalLane="e2_0" arrivalPos="180.91" arrivalSpeed="13.99" duration="47.00" routeLength="568.99" waitingTime="0.00" waitingCount="0" stopTime="0.00" timeLoss="5.84" rerouteNo="1" devices="tripinfo_bg_traffic.40 routing_bg_traffic.40" vType="car" speedFactor="1.03" vaporized=""/>
    <tripinfo id="bg_traffic.41" depart="410.00" departLane="e6_0" departPos="5.10" departSpeed="0.00" departDelay="0.00" arrival="460.00" arrivalLane="e2_0" arrivalPos="180.91" arrivalSpeed="13.16" duration="50.00" routeLength="568.99" waitingTime="0.00" waitingCount="0" stopTime="0.00" timeLoss="5.89" rerouteNo="1" devices="tripinfo_bg_traffic.41 routing_bg_traffic.41" vType="car" speedFactor="0.96" vaporized=""/>
    <tripinfo id="bg_traffic.42" depart="420.00" departLane="e6_0" departPos="5.10" departSpeed="0.00" departDelay="0.00" arrival="465.00" arrivalLane="e2_0" arrivalPos="180.91" arrivalSpeed="13.96" duration="45.00" routeLength="568.99" waitingTime="0.00" waitingCount="0" stopTime="0.00" timeLoss="6.02" rerouteNo="1" devices="tripinfo_bg_traffic.42 routing_bg_traffic.42" vType="car" speedFactor="1.09" vaporized=""/>
    <tripinfo id="bg_traffic.43" depart="430.00" departLane="e6_0" departPos="5.10" departSpeed="0.00" departDelay="0.00" arrival="477.00" arrivalLane="e2_0" arrivalPos="180.91" arrivalSpeed="13.87" duration="47.00" routeLength="568.99" waitingTime="0.00" waitingCount="0" stopTime="0.00" timeLoss="6.18" rerouteNo="1" devices="tripinfo_bg_traffic.43 routing_bg_traffic.43" vType="car" speedFactor="1.04" vaporized=""/>
    <tripinfo id="bg_traffic.44" depart="440.00" departLane="e6_0" departPos="5.10" departSpeed="0.00" departDelay="0.00" arrival="486.00" arrivalLane="e2_0" arrivalPos="180.91" arrivalSpeed="14.05" duration="46.00" routeLength="568.99" waitingTime="0.00" waitingCount="0" stopTime="0.00" timeLoss="5.35" rerouteNo="1" devices="tripinfo_bg_traffic.44 routing_bg_traffic.44" vType="car" speedFactor="1.04" vaporized=""/>
    <tripinfo id="bg_traffic.45" depart="450.00" departLane="e6_0" departPos="5.10" departSpeed="0.00" departDelay="0.00" arrival="494.00" arrivalLane="e2_0" arrivalPos="180.91" arrivalSpeed="14.25" duration="44.00" routeLength="568.99" waitingTime="0.00" waitingCount="0" stopTime="0.00" timeLoss="5.67" rerouteNo="1" devices="tripinfo_bg_traffic.45 routing_bg_traffic.45" vType="car" speedFactor="1.09" vaporized=""/>
    <tripinfo id="bg_traffic.46" depart="460.00" departLane="e6_0" departPos="5.10" departSpeed="0.00" departDelay="0.00" arrival="509.00" arrivalLane="e2_0" arrivalPos="180.91" arrivalSpeed="13.45" duration="49.00" routeLength="568.99" waitingTime="0.00" waitingCount="0" stopTime="0.00" timeLoss="6.29" rerouteNo="1" devices="tripinfo_bg_traffic.46 routing_bg_traffic.46" vType="car" speedFactor="1.00" vaporized=""/>
    <tripinfo id="bg_traffic.47" depart="470.00" departLane="e6_0" departPos="5.10" departSpeed="0.00" departDelay="0.00" arrival="522.00" arrivalLane="e2_0" arrivalPos="180.91" arrivalSpeed="11.26" duration="52.00" routeLength="568.99" waitingTime="0.00" waitingCount="0" stopTime="0.00" timeLoss="5.63" rerouteNo="1" devices="tripinfo_bg_traffic.47 routing_bg_traffic.47" vType="car" speedFactor="0.90" vaporized=""/>
    <tripinfo id="bg_traffic.48" depart="480.00" departLane="e6_0" departPos="5.10" departSpeed="0.00" departDelay="0.00" arrival="534.00" arrivalLane="e2_0" arrivalPos="180.91" arrivalSpeed="11.00" duration="54.00" routeLength="568.99" waitingTime="0.00" waitingCount="0" stopTime="0.00" timeLoss="6.70" rerouteNo="1" devices="tripinfo_bg_traffic.48 routing_bg_traffic.48" vType="car" speedFactor="0.88" vaporized=""/>
    <tripinfo id="bg_traffic.49" depart="490.00" departLane="e6_0" departPos="5.10" departSpeed="0.00" departDelay="0.00" arrival="545.00" arrivalLane="e2_0" arrivalPos="180.91" arrivalSpeed="10.67" duration="55.00" routeLength="568.99" waitingTime="0.00" waitingCount="0" stopTime="0.00" timeLoss="5.61" rerouteNo="1" devices="tripinfo_bg_traffic.49 routing_bg_traffic.49" vType="car" speedFactor="0.85" vaporized=""/>
    <tripinfo id="bg_traffic.50" depart="500.00" departLane="e6_0" departPos="5.10" departSpeed="0.00" departDelay="0.00" arrival="555.00" arrivalLane="e2_0" arrivalPos="180.91" arrivalSpeed="11.15" duration="55.00" routeLength="568.99" waitingTime="0.00" waitingCount="0" stopTime="0.00" timeLoss="5.56" rerouteNo="1" devices="tripinfo_bg_traffic.50 routing_bg_traffic.50" vType="car" speedFactor="0.85" vaporized=""/>
    <tripinfo id="bg_traffic.51" depart="510.00" departLane="e6_0" departPos="5.10" departSpeed="0.00" departDelay="0.00" arrival="556.00" arrivalLane="e2_0" arrivalPos="180.91" arrivalSpeed="13.75" duration="46.00" routeLength="568.99" waitingTime="0.00" waitingCount="0" stopTime="0.00" timeLoss="10.12" rerouteNo="1" devices="tripinfo_bg_traffic.51 routing_bg_traffic.51" vType="car" speedFactor="1.17" vaporized=""/>
    <tripinfo id="bg_traffic.52" depart="520.00" departLane="e6_0" departPos="5.10" departSpeed="0.00" departDelay="0.00" arrival="568.00" arrivalLane="e2_0" arrivalPos="180.91" arrivalSpeed="13.19" duration="48.00" routeLength="568.99" waitingTime="0.00" waitingCount="0" stopTime="0.00" timeLoss="6.53" rerouteNo="1" devices="tripinfo_bg_traffic.52 routing_bg_traffic.52" vType="car" speedFactor="1.02" vaporized=""/>
    <tripinfo id="bg_traffic.53" depart="530.00" departLane="e6_0" departPos="5.10" departSpeed="0.00" departDelay="0.00" arrival="574.00" arrivalLane="e2_0" arrivalPos="180.91" arrivalSpeed="14.78" duration="44.00" routeLength="568.99" waitingTime="0.00" waitingCount="0" stopTime="0.00" timeLoss="5.20" rerouteNo="1" devices="tripinfo_bg_traffic.53 routing_bg_traffic.53" vType="car" speedFactor="1.10" vaporized=""/>
    <tripinfo id="bg_traffic.54" depart="540.00" departLane="e6_0" departPos="5.10" departSpeed="0.00" departDelay="0.00" arrival="588.00" arrivalLane="e2_0" arrivalPos="180.91" arrivalSpeed="13.43" duration="48.00" routeLength="568.99" waitingTime="0.00" waitingCount="0" stopTime="0.00" timeLoss="5.64" rerouteNo="1" devices="tripinfo_bg_traffic.54 routing_bg_traffic.54" vType="car" speedFactor="1.00" vaporized=""/>
    <tripinfo id="bg_traffic.55" depart="550.00" departLane="e6_0" departPos="5.10" departSpeed="0.00" departDelay="0.00" arrival="598.00" arrivalLane="e2_0" arrivalPos="180.91" arrivalSpeed="12.78" duration="48.00" routeLength="568.99" waitingTime="0.00" waitingCount="0" stopTime="0.00" timeLoss="5.92" rerouteNo="1" devices="tripinfo_bg_traffic.55 routing_bg_traffic.55" vType="car" speedFactor="1.00" vaporized=""/>
    <tripinfo id="bg_traffic.56" depart="560.00" departLane="e6_0" departPos="5.10" departSpeed="0.00" departDelay="0.00" arrival="613.00" arrivalLane="e2_0" arrivalPos="180.91" arrivalSpeed="11.78" duration="53.00" routeLength="568.99" waitingTime="0.00" waitingCount="0" stopTime="0.00" timeLoss="6.23" rerouteNo="1" devices="tripinfo_bg_traffic.56 routing_bg_traffic.56" vType="car" speedFactor="0.90" vaporized=""/>
    <tripinfo id="bg_traffic.57" depart="570.00" departLane="e6_0" departPos="5.10" departSpeed="0.00" departDelay="0.00" arrival="615.00" arrivalLane="e2_0" arrivalPos="180.91" arrivalSpeed="15.47" duration="45.00" routeLength="568.99" waitingTime="0.00" waitingCount="0" stopTime="0.00" timeLoss="7.85" rerouteNo="1" devices="tripinfo_bg_traffic.57 routing_bg_traffic.57" vType="car" speedFactor="1.14" vaporized=""/>
    <tripinfo id="bg_traffic.58" depart="580.00" departLane="e6_0" departPos="5.10" departSpeed="0.00" departDelay="0.00" arrival="627.00" arrivalLane="e2_0" arrivalPos="180.91" arrivalSpeed="13.09" duration="47.00" routeLength="568.99" waitingTime="0.00" waitingCount="0" stopTime="0.00" timeLoss="5.98" rerouteNo="1" devices="tripinfo_bg_traffic.58 routing_bg_traffic.58" vType="car" speedFactor="1.02" vaporized=""/>
    <tripinfo id="bg_traffic.59" depart="590.00" departLane="e6_0" departPos="5.10" departSpeed="0.00" departDelay="0.00" arrival="639.00" arrivalLane="e2_0" arrivalPos="180.91" arrivalSpeed="13.08" duration="49.00" routeLength="568.99" waitingTime="0.00" waitingCount="0" stopTime="0.00" timeLoss="5.53" rerouteNo="1" devices="tripinfo_bg_traffic.59 routing_bg_traffic.59" vType="car" speedFactor="0.97" vaporized=""/>
    <tripinfo id="bg_traffic.60" depart="600.00" departLane="e6_0" departPos="5.10" departSpeed="0.00" departDelay="0.00" arrival="645.00" arrivalLane="e2_0" arrivalPos="180.91" arrivalSpeed="13.92" duration="45.00" routeLength="568.99" waitingTime="0.00" waitingCount="0" stopTime="0.00" timeLoss="5.73" rerouteNo="1" devices="tripinfo_bg_traffic.60 routing_bg_traffic.60" vType="car" speedFactor="1.08" vaporized=""/>
    <tripinfo id="bg_traffic.61" depart="610.00" departLane="e6_0" departPos="5.10" departSpeed="0.00" departDelay="0.00" arrival="653.00" arrivalLane="e2_0" arrivalPos="180.91" arrivalSpeed="14.35" duration="43.00" routeLength="568.99" waitingTime="0.00" waitingCount="0" stopTime="0.00" timeLoss="5.23" rerouteNo="1" devices="tripinfo_bg_traffic.61 routing_bg_traffic.61" vType="car" speedFactor="1.12" vaporized=""/>